
                                 *****************
                                 * O   R   C   A *
                                 *****************

                                            #,                                       
                                            ###                                      
                                            ####                                     
                                            #####                                    
                                            ######                                   
                                           ########,                                 
                                     ,,################,,,,,                         
                               ,,#################################,,                 
                          ,,##########################################,,             
                       ,#########################################, ''#####,          
                    ,#############################################,,   '####,        
                  ,##################################################,,,,####,       
                ,###########''''           ''''###############################       
              ,#####''   ,,,,##########,,,,          '''####'''          '####       
            ,##' ,,,,###########################,,,                        '##       
           ' ,,###''''                  '''############,,,                           
         ,,##''                                '''############,,,,        ,,,,,,###''
      ,#''                                            '''#######################'''  
     '                                                          ''''####''''         
             ,#######,   #######,   ,#######,      ##                                
            ,#'     '#,  ##    ##  ,#'     '#,    #''#        ######   ,####,        
            ##       ##  ##   ,#'  ##            #'  '#       #        #'  '#        
            ##       ##  #######   ##           ,######,      #####,   #    #        
            '#,     ,#'  ##    ##  '#,     ,#' ,#      #,         ##   #,  ,#        
             '#######'   ##     ##  '#######'  #'      '#     #####' # '####'        



                  #######################################################
                  #                        -***-                        #
                  #          Department of theory and spectroscopy      #
                  #    Directorship and core code : Frank Neese         #
                  #        Max Planck Institute fuer Kohlenforschung    #
                  #                Kaiser Wilhelm Platz 1               #
                  #                 D-45470 Muelheim/Ruhr               #
                  #                      Germany                        #
                  #                                                     #
                  #                  All rights reserved                #
                  #                        -***-                        #
                  #######################################################


                         Program Version 5.0.4 -  RELEASE  -


 With contributions from (in alphabetic order):
   Daniel Aravena         : Magnetic Suceptibility
   Michael Atanasov       : Ab Initio Ligand Field Theory (pilot matlab implementation)
   Alexander A. Auer      : GIAO ZORA, VPT2 properties, NMR spectrum
   Ute Becker             : Parallelization
   Giovanni Bistoni       : ED, misc. LED, open-shell LED, HFLD
   Martin Brehm           : Molecular dynamics
   Dmytro Bykov           : SCF Hessian
   Vijay G. Chilkuri      : MRCI spin determinant printing, contributions to CSF-ICE
   Dipayan Datta          : RHF DLPNO-CCSD density
   Achintya Kumar Dutta   : EOM-CC, STEOM-CC
   Dmitry Ganyushin       : Spin-Orbit,Spin-Spin,Magnetic field MRCI
   Miquel Garcia          : C-PCM and meta-GGA Hessian, CC/C-PCM, Gaussian charge scheme
   Yang Guo               : DLPNO-NEVPT2, F12-NEVPT2, CIM, IAO-localization
   Andreas Hansen         : Spin unrestricted coupled pair/coupled cluster methods
   Benjamin Helmich-Paris : MC-RPA, TRAH-SCF, COSX integrals
   Lee Huntington         : MR-EOM, pCC
   Robert Izsak           : Overlap fitted RIJCOSX, COSX-SCS-MP3, EOM
   Marcus Kettner         : VPT2
   Christian Kollmar      : KDIIS, OOCD, Brueckner-CCSD(T), CCSD density, CASPT2, CASPT2-K
   Simone Kossmann        : Meta GGA functionals, TD-DFT gradient, OOMP2, MP2 Hessian
   Martin Krupicka        : Initial AUTO-CI
   Lucas Lang             : DCDCAS
   Marvin Lechner         : AUTO-CI (C++ implementation), FIC-MRCC
   Dagmar Lenk            : GEPOL surface, SMD
   Dimitrios Liakos       : Extrapolation schemes; Compound Job, initial MDCI parallelization
   Dimitrios Manganas     : Further ROCIS development; embedding schemes
   Dimitrios Pantazis     : SARC Basis sets
   Anastasios Papadopoulos: AUTO-CI, single reference methods and gradients
   Taras Petrenko         : DFT Hessian,TD-DFT gradient, ASA, ECA, R-Raman, ABS, FL, XAS/XES, NRVS
   Peter Pinski           : DLPNO-MP2, DLPNO-MP2 Gradient
   Christoph Reimann      : Effective Core Potentials
   Marius Retegan         : Local ZFS, SOC
   Christoph Riplinger    : Optimizer, TS searches, QM/MM, DLPNO-CCSD(T), (RO)-DLPNO pert. Triples
   Tobias Risthaus        : Range-separated hybrids, TD-DFT gradient, RPA, STAB
   Michael Roemelt        : Original ROCIS implementation
   Masaaki Saitow         : Open-shell DLPNO-CCSD energy and density
   Barbara Sandhoefer     : DKH picture change effects
   Avijit Sen             : IP-ROCIS
   Kantharuban Sivalingam : CASSCF convergence, NEVPT2, FIC-MRCI
   Bernardo de Souza      : ESD, SOC TD-DFT
   Georgi Stoychev        : AutoAux, RI-MP2 NMR, DLPNO-MP2 response
   Willem Van den Heuvel  : Paramagnetic NMR
   Boris Wezisla          : Elementary symmetry handling
   Frank Wennmohs         : Technical directorship


 We gratefully acknowledge several colleagues who have allowed us to
 interface, adapt or use parts of their codes:
   Stefan Grimme, W. Hujo, H. Kruse, P. Pracht,  : VdW corrections, initial TS optimization,
                  C. Bannwarth, S. Ehlert          DFT functionals, gCP, sTDA/sTD-DF
   Ed Valeev, F. Pavosevic, A. Kumar             : LibInt (2-el integral package), F12 methods
   Garnet Chan, S. Sharma, J. Yang, R. Olivares  : DMRG
   Ulf Ekstrom                                   : XCFun DFT Library
   Mihaly Kallay                                 : mrcc  (arbitrary order and MRCC methods)
   Jiri Pittner, Ondrej Demel                    : Mk-CCSD
   Frank Weinhold                                : gennbo (NPA and NBO analysis)
   Christopher J. Cramer and Donald G. Truhlar   : smd solvation model
   Lars Goerigk                                  : TD-DFT with DH, B97 family of functionals
   V. Asgeirsson, H. Jonsson                     : NEB implementation
   FAccTs GmbH                                   : IRC, NEB, NEB-TS, DLPNO-Multilevel, CI-OPT
                                                   MM, QMMM, 2- and 3-layer-ONIOM, Crystal-QMMM,
                                                   LR-CPCM, SF, NACMEs, symmetry and pop. for TD-DFT,
                                                   nearIR, NL-DFT gradient (VV10), updates on ESD,
                                                   ML-optimized integration grids
   S Lehtola, MJT Oliveira, MAL Marques          : LibXC Library
   Liviu Ungur et al                             : ANISO software


 Your calculation uses the libint2 library for the computation of 2-el integrals
 For citations please refer to: http://libint.valeyev.net

 Your ORCA version has been built with support for libXC version: 5.1.0
 For citations please refer to: https://tddft.org/programs/libxc/

 This ORCA versions uses:
   CBLAS   interface :  Fast vector & matrix operations
   LAPACKE interface :  Fast linear algebra routines
   SCALAPACK package :  Parallel linear algebra routines
   Shared memory     :  Shared parallel matrices
   BLAS/LAPACK       :  OpenBLAS 0.3.15  USE64BITINT DYNAMIC_ARCH NO_AFFINITY Haswell SINGLE_THREADED
        Core in use  :  Haswell
   Copyright (c) 2011-2014, The OpenBLAS Project


Your calculation utilizes the atom-pairwise dispersion correction
with the Becke-Johnson damping scheme (D3BJ)
Cite in your paper:
S.Grimme, S.Ehrlich, L.Goerigk, J Comput Chem, (2011), 32, 1456–1465 
S.Grimme, J.Antony, S.Ehrlich and H.Krieg, J.Chem.Phys., 132, (2010), 154104 
   

================================================================================

----- Orbital basis set information -----
Your calculation utilizes the basis: def2-SVP
   F. Weigend and R. Ahlrichs, Phys. Chem. Chem. Phys. 7, 3297 (2005).

----- AuxJ basis set information -----
Your calculation utilizes the auxiliary basis: def2/J
   F. Weigend, Phys. Chem. Chem. Phys. 8, 1057 (2006).

================================================================================
                                        WARNINGS
                       Please study these warnings very carefully!
================================================================================


WARNING: Geometry Optimization
  ===> : Switching off AutoStart
         For restart on a previous wavefunction, please use MOREAD

INFO   : the flag for use of the SHARK integral package has been found!

================================================================================
                                       INPUT FILE
================================================================================
NAME = m1_00_BC-PBE0-PBE.inp
|  1> # put your comments here
|  2> %pal nprocs 6 end
|  3> ! PBE def2-svp OPT FREQ D3BJ DEFGRID3 
|  4> %scf MaxIter 800 end
|  5> %output
|  6> Print [P_Hirshfeld] 1
|  7> end
|  8> %MaxCore 1500
|  9> %geom
| 10> MaxIter 3000
| 11> TolE 1e-6 #TolE 5e-6 Energy change (a.u.)
| 12> TolRMSG 3e-5 #TolRMSG 1e-4 RMS gradient (a.u.)
| 13> TolMaxG 1e-4 #TolMaxG 3e-3 Max. element of gradient (a.u.)
| 14> TolRMSD 2e-3 #TolRMSD 2e-3 RMS displacement (a.u.)
| 15> TolMaxD 4e-3 #TolMaxD 4e-3 Max. displacement (a.u.)
| 16> end
| 17> * xyz 0 1
| 18>  C        -1.300829         0.260308         0.081604
| 19>  O        -1.225505        -1.064751         0.320837
| 20>  O        -0.182006         0.690567        -0.532372
| 21>  O        -2.222523         0.946760         0.371696
| 22>  C        -0.051799        -1.594140        -0.277597
| 23>  C         0.792710        -0.355676        -0.573853
| 24>  H         0.427179        -2.272460         0.429119
| 25>  H        -0.329755        -2.143512        -1.180296
| 26>  C         1.889088        -0.098954         0.437394
| 27>  H         1.201678        -0.371764        -1.586752
| 28>  H         1.445101        -0.101702         1.439360
| 29>  H         2.578267        -0.949949         0.397539
| 30>  C         2.635772         1.198547         0.189525
| 31>  H         3.412859         1.351130         0.940135
| 32>  H         3.115998         1.194485        -0.792709
| 33>  H         1.956623         2.051477         0.226739
| 34> *
| 35> 
| 36> 
| 37> 
| 38> 
| 39>                          ****END OF INPUT****
================================================================================

                       *****************************
                       * Geometry Optimization Run *
                       *****************************

Geometry optimization settings:
Update method            Update   .... BFGS
Choice of coordinates    CoordSys .... Z-matrix Internals
Initial Hessian          InHess   .... Almoef's Model

Convergence Tolerances:
Energy Change            TolE     ....  1.0000e-06 Eh
Max. Gradient            TolMAXG  ....  1.0000e-04 Eh/bohr
RMS Gradient             TolRMSG  ....  3.0000e-05 Eh/bohr
Max. Displacement        TolMAXD  ....  4.0000e-03 bohr
RMS Displacement         TolRMSD  ....  2.0000e-03 bohr
Strict Convergence                ....  False
------------------------------------------------------------------------------
                        ORCA OPTIMIZATION COORDINATE SETUP
------------------------------------------------------------------------------

The optimization will be done in new redundant internal coordinates
Making redundant internal coordinates   ...  (new redundants) done
Evaluating the initial hessian          ...  (Almloef) done
Evaluating the coordinates              ...  done
Calculating the B-matrix                .... done
Calculating the G-matrix                .... done
Diagonalizing the G-matrix              .... done
The first mode is                       ....   40
The number of degrees of freedom        ....   42

    -----------------------------------------------------------------
                    Redundant Internal Coordinates


    -----------------------------------------------------------------
         Definition                    Initial Value    Approx d2E/dq
    -----------------------------------------------------------------
      1. B(O   1,C   0)                  1.3486         0.651549   
      2. B(O   2,C   0)                  1.3468         0.655855   
      3. B(O   3,C   0)                  1.1853         1.187114   
      4. B(C   4,O   1)                  1.4198         0.501486   
      5. B(C   5,C   4)                  1.5280         0.376342   
      6. B(C   5,O   2)                  1.4305         0.482183   
      7. B(H   6,C   4)                  1.0904         0.359563   
      8. B(H   7,C   4)                  1.0927         0.356581   
      9. B(C   8,C   5)                  1.5135         0.396973   
     10. B(H   9,C   5)                  1.0925         0.356855   
     11. B(H  10,C   8)                  1.0959         0.352337   
     12. B(H  11,C   8)                  1.0958         0.352526   
     13. B(C  12,C   8)                  1.5174         0.391282   
     14. B(H  13,C  12)                  1.0911         0.358610   
     15. B(H  14,C  12)                  1.0934         0.355694   
     16. B(H  15,C  12)                  1.0909         0.358878   
     17. A(O   2,C   0,O   3)          124.9279         0.487200   
     18. A(O   1,C   0,O   2)          110.3874         0.436641   
     19. A(O   1,C   0,O   3)          124.6847         0.486607   
     20. A(C   0,O   1,C   4)          109.7397         0.416153   
     21. A(C   0,O   2,C   5)          110.2186         0.413743   
     22. A(H   6,C   4,H   7)          109.5367         0.290323   
     23. A(O   1,C   4,C   5)          103.6740         0.380332   
     24. A(C   5,C   4,H   7)          112.8257         0.324189   
     25. A(O   1,C   4,H   7)          108.9884         0.337913   
     26. A(C   5,C   4,H   6)          112.7736         0.324633   
     27. A(O   1,C   4,H   6)          108.7772         0.338382   
     28. A(O   2,C   5,C   8)          110.4971         0.381265   
     29. A(O   2,C   5,C   4)          102.1562         0.377756   
     30. A(O   2,C   5,H   9)          107.0213         0.335754   
     31. A(C   4,C   5,C   8)          114.0991         0.367615   
     32. A(C   8,C   5,H   9)          110.5371         0.327088   
     33. A(C   4,C   5,H   9)          112.0077         0.324230   
     34. A(H  10,C   8,C  12)          110.5389         0.325628   
     35. A(C   5,C   8,C  12)          113.1021         0.370081   
     36. A(H  10,C   8,H  11)          106.6247         0.288882   
     37. A(C   5,C   8,H  11)          107.4322         0.326432   
     38. A(H  11,C   8,C  12)          110.4038         0.325657   
     39. A(C   5,C   8,H  10)          108.4801         0.326403   
     40. A(H  14,C  12,H  15)          107.8777         0.290123   
     41. A(H  13,C  12,H  15)          108.0935         0.290495   
     42. A(C   8,C  12,H  15)          110.8931         0.326615   
     43. A(H  13,C  12,H  14)          107.8013         0.290089   
     44. A(C   8,C  12,H  14)          111.0823         0.326137   
     45. A(C   8,C  12,H  13)          110.9564         0.326575   
     46. D(C   4,O   1,C   0,O   3)    173.9770         0.031386   
     47. D(C   4,O   1,C   0,O   2)     -6.0220         0.031386   
     48. D(C   5,O   2,C   0,O   3)    172.4229         0.031837   
     49. D(C   5,O   2,C   0,O   1)     -7.5781         0.031837   
     50. D(C   5,C   4,O   1,C   0)     15.8599         0.019886   
     51. D(H   7,C   4,O   1,C   0)   -104.5337         0.019886   
     52. D(H   6,C   4,O   1,C   0)    136.0912         0.019886   
     53. D(C   8,C   5,C   4,O   1)    100.2248         0.011300   
     54. D(O   2,C   5,C   4,H   6)   -136.5125         0.011300   
     55. D(O   2,C   5,C   4,O   1)    -19.0333         0.011300   
     56. D(H   9,C   5,O   2,C   0)    134.4001         0.018345   
     57. D(O   2,C   5,C   4,H   7)     98.7235         0.011300   
     58. D(H   9,C   5,C   4,H   6)    109.2801         0.011300   
     59. D(C   8,C   5,C   4,H   6)    -17.2544         0.011300   
     60. D(H   9,C   5,C   4,O   1)   -133.2407         0.011300   
     61. D(C   4,C   5,O   2,C   0)     16.5713         0.018345   
     62. D(C   8,C   5,C   4,H   7)   -142.0184         0.011300   
     63. D(H   9,C   5,C   4,H   7)    -15.4839         0.011300   
     64. D(C   8,C   5,O   2,C   0)   -105.1938         0.018345   
     65. D(C  12,C   8,C   5,H   9)     57.6637         0.012510   
     66. D(C  12,C   8,C   5,O   2)    -60.6154         0.012510   
     67. D(H  11,C   8,C   5,H   9)    -64.4243         0.012510   
     68. D(H  11,C   8,C   5,C   4)     62.8723         0.012510   
     69. D(H  11,C   8,C   5,O   2)    177.2966         0.012510   
     70. D(H  10,C   8,C   5,H   9)   -179.3296         0.012510   
     71. D(C  12,C   8,C   5,C   4)   -175.0396         0.012510   
     72. D(H  10,C   8,C   5,C   4)    -52.0329         0.012510   
     73. D(H  10,C   8,C   5,O   2)     62.3913         0.012510   
     74. D(H  13,C  12,C   8,H  11)    -59.8972         0.012168   
     75. D(H  13,C  12,C   8,H  10)     57.8348         0.012168   
     76. D(H  13,C  12,C   8,C   5)    179.6935         0.012168   
     77. D(H  15,C  12,C   8,H  11)    179.9591         0.012168   
     78. D(H  15,C  12,C   8,H  10)    -62.3088         0.012168   
     79. D(H  15,C  12,C   8,C   5)     59.5498         0.012168   
     80. D(H  14,C  12,C   8,H  11)     60.0039         0.012168   
     81. D(H  14,C  12,C   8,H  10)    177.7359         0.012168   
     82. D(H  14,C  12,C   8,C   5)    -60.4054         0.012168   
    -----------------------------------------------------------------

Number of atoms                         .... 16
Number of degrees of freedom            .... 82

         *************************************************************
         *                GEOMETRY OPTIMIZATION CYCLE   1            *
         *************************************************************
---------------------------------
CARTESIAN COORDINATES (ANGSTROEM)
---------------------------------
  C     -1.300829    0.260308    0.081604
  O     -1.225505   -1.064751    0.320837
  O     -0.182006    0.690567   -0.532372
  O     -2.222523    0.946760    0.371696
  C     -0.051799   -1.594140   -0.277597
  C      0.792710   -0.355676   -0.573853
  H      0.427179   -2.272460    0.429119
  H     -0.329755   -2.143512   -1.180296
  C      1.889088   -0.098954    0.437394
  H      1.201678   -0.371764   -1.586752
  H      1.445101   -0.101702    1.439360
  H      2.578267   -0.949949    0.397539
  C      2.635772    1.198547    0.189525
  H      3.412859    1.351130    0.940135
  H      3.115998    1.194485   -0.792709
  H      1.956623    2.051477    0.226739

----------------------------
CARTESIAN COORDINATES (A.U.)
----------------------------
  NO LB      ZA    FRAG     MASS         X           Y           Z
   0 C     6.0000    0    12.011   -2.458211    0.491911    0.154209
   1 O     8.0000    0    15.999   -2.315869   -2.012088    0.606294
   2 O     8.0000    0    15.999   -0.343941    1.304983   -1.006037
   3 O     8.0000    0    15.999   -4.199960    1.789117    0.702404
   4 C     6.0000    0    12.011   -0.097886   -3.012488   -0.524582
   5 C     6.0000    0    12.011    1.498005   -0.672130   -1.084425
   6 H     1.0000    0     1.008    0.807251   -4.294327    0.810917
   7 H     1.0000    0     1.008   -0.623147   -4.050651   -2.230436
   8 C     6.0000    0    12.011    3.569859   -0.186996    0.826555
   9 H     1.0000    0     1.008    2.270842   -0.702532   -2.998527
  10 H     1.0000    0     1.008    2.730845   -0.192189    2.719996
  11 H     1.0000    0     1.008    4.872219   -1.795143    0.751240
  12 C     6.0000    0    12.011    4.980887    2.264926    0.358150
  13 H     1.0000    0     1.008    6.449369    2.553266    1.776598
  14 H     1.0000    0     1.008    5.888383    2.257250   -1.498003
  15 H     1.0000    0     1.008    3.697482    3.876730    0.428475

--------------------------------
INTERNAL COORDINATES (ANGSTROEM)
--------------------------------
 C      0   0   0     0.000000000000     0.00000000     0.00000000
 O      1   0   0     1.348587218813     0.00000000     0.00000000
 O      1   2   0     1.346794060347   110.38744533     0.00000000
 O      1   2   3     1.185280366160   124.68467190   179.99897380
 C      2   1   3     1.419845674752   109.73971908   353.97803941
 C      3   1   2     1.430530100720   110.21856622   352.42191491
 H      5   2   1     1.090406094783   108.77721659   136.09120124
 H      5   2   1     1.092673151917   108.98841300   255.46630139
 C      6   3   1     1.513463378869   110.49711348   254.80621091
 H      6   3   1     1.092464202145   107.02132899   134.40012445
 H      9   6   3     1.095932421652   108.48009638    62.39131521
 H      9   6   3     1.095786751650   107.43219446   177.29656615
 C      9   6   3     1.517394108997   113.10211517   299.38460248
 H     13   9   6     1.091128383628   110.95635435   179.69346671
 H     13   9   6     1.093351334968   111.08227428   299.59457349
 H     13   9   6     1.090925217830   110.89305613    59.54983290

---------------------------
INTERNAL COORDINATES (A.U.)
---------------------------
 C      0   0   0     0.000000000000     0.00000000     0.00000000
 O      1   0   0     2.548460511263     0.00000000     0.00000000
 O      1   2   0     2.545071932848   110.38744533     0.00000000
 O      1   2   3     2.239855283956   124.68467190   179.99897380
 C      2   1   3     2.683119477715   109.73971908   353.97803941
 C      3   1   2     2.703310116692   110.21856622   352.42191491
 H      5   2   1     2.060568893899   108.77721659   136.09120124
 H      5   2   1     2.064853011012   108.98841300   255.46630139
 C      6   3   1     2.860031299781   110.49711348   254.80621091
 H      6   3   1     2.064458153167   107.02132899   134.40012445
 H      9   6   3     2.071012138208   108.48009638    62.39131521
 H      9   6   3     2.070736861797   107.43219446   177.29656615
 C      9   6   3     2.867459303229   113.10211517   299.38460248
 H     13   9   6     2.061933822005   110.95635435   179.69346671
 H     13   9   6     2.066134591246   111.08227428   299.59457349
 H     13   9   6     2.061549894287   110.89305613    59.54983290

---------------------
BASIS SET INFORMATION
---------------------
There are 3 groups of distinct atoms

 Group   1 Type C   : 7s4p1d contracted to 3s2p1d pattern {511/31/1}
 Group   2 Type O   : 7s4p1d contracted to 3s2p1d pattern {511/31/1}
 Group   3 Type H   : 4s1p contracted to 2s1p pattern {31/1}

Atom   0C    basis set group =>   1
Atom   1O    basis set group =>   2
Atom   2O    basis set group =>   2
Atom   3O    basis set group =>   2
Atom   4C    basis set group =>   1
Atom   5C    basis set group =>   1
Atom   6H    basis set group =>   3
Atom   7H    basis set group =>   3
Atom   8C    basis set group =>   1
Atom   9H    basis set group =>   3
Atom  10H    basis set group =>   3
Atom  11H    basis set group =>   3
Atom  12C    basis set group =>   1
Atom  13H    basis set group =>   3
Atom  14H    basis set group =>   3
Atom  15H    basis set group =>   3
---------------------------------
AUXILIARY/J BASIS SET INFORMATION
---------------------------------
There are 3 groups of distinct atoms

 Group   1 Type C   : 12s5p4d2f1g contracted to 6s4p3d1f1g pattern {711111/2111/211/2/1}
 Group   2 Type O   : 12s5p4d2f1g contracted to 6s4p3d1f1g pattern {711111/2111/211/2/1}
 Group   3 Type H   : 5s2p1d contracted to 3s1p1d pattern {311/2/1}

Atom   0C    basis set group =>   1
Atom   1O    basis set group =>   2
Atom   2O    basis set group =>   2
Atom   3O    basis set group =>   2
Atom   4C    basis set group =>   1
Atom   5C    basis set group =>   1
Atom   6H    basis set group =>   3
Atom   7H    basis set group =>   3
Atom   8C    basis set group =>   1
Atom   9H    basis set group =>   3
Atom  10H    basis set group =>   3
Atom  11H    basis set group =>   3
Atom  12C    basis set group =>   1
Atom  13H    basis set group =>   3
Atom  14H    basis set group =>   3
Atom  15H    basis set group =>   3


           ************************************************************
           *        Program running with 6 parallel MPI-processes     *
           *              working on a common directory               *
           ************************************************************
------------------------------------------------------------------------------
                           ORCA GTO INTEGRAL CALCULATION
                           -- RI-GTO INTEGRALS CHOSEN --
------------------------------------------------------------------------------
------------------------------------------------------------------------------
                   ___                                                        
                  /   \      - P O W E R E D   B Y -                         
                 /     \                                                     
                 |  |  |   _    _      __       _____    __    __             
                 |  |  |  | |  | |    /  \     |  _  \  |  |  /  |          
                  \  \/   | |  | |   /    \    | | | |  |  | /  /          
                 / \  \   | |__| |  /  /\  \   | |_| |  |  |/  /          
                |  |  |   |  __  | /  /__\  \  |    /   |      \           
                |  |  |   | |  | | |   __   |  |    \   |  |\   \          
                \     /   | |  | | |  |  |  |  | |\  \  |  | \   \       
                 \___/    |_|  |_| |__|  |__|  |_| \__\ |__|  \__/        
                                                                              
                      - O R C A' S   B I G   F R I E N D -                    
                                      &                                       
                       - I N T E G R A L  F E E D E R -                       
                                                                              
 v1 FN, 2020, v2 2021                                                         
------------------------------------------------------------------------------


Reading SHARK input file m1_00_BC-PBE0-PBE.SHARKINP.tmp ... ok
----------------------
SHARK INTEGRAL PACKAGE
----------------------

Number of atoms                             ...     16
Number of basis functions                   ...    152
Number of shells                            ...     72
Maximum angular momentum                    ...      2
Integral batch strategy                     ... SHARK/LIBINT Hybrid
RI-J (if used) integral strategy            ... SPLIT-RIJ (Revised 2003 algorithm where possible)
Printlevel                                  ...      1
Contraction scheme used                     ... SEGMENTED contraction
Coulomb Range Separation                    ... NOT USED
Exchange Range Separation                   ... NOT USED
Finite Nucleus Model                        ... NOT USED
Auxiliary Coulomb fitting basis             ... AVAILABLE
   # of basis functions in Aux-J            ...    480
   # of shells in Aux-J                     ...    160
   Maximum angular momentum in Aux-J        ...      4
Auxiliary J/K fitting basis                 ... NOT available
Auxiliary Correlation fitting basis         ... NOT available
Auxiliary 'external' fitting basis          ... NOT available
Integral threshold                          ...     2.500000e-11
Primitive cut-off                           ...     2.500000e-12
Primitive pair pre-selection threshold      ...     2.500000e-12

Calculating pre-screening integrals         ... done (  0.0 sec) Dimension = 72
Organizing shell pair data                  ... done (  0.0 sec)
Shell pair information
Total number of shell pairs                 ...      2628
Shell pairs after pre-screening             ...      2489
Total number of primitive shell pairs       ...      9444
Primitive shell pairs kept                  ...      6664
          la=0 lb=0:    775 shell pairs
          la=1 lb=0:    911 shell pairs
          la=1 lb=1:    289 shell pairs
          la=2 lb=0:    299 shell pairs
          la=2 lb=1:    181 shell pairs
          la=2 lb=2:     34 shell pairs

Calculating one electron integrals          ... done (  0.0 sec)
Calculating RI/J V-Matrix + Cholesky decomp.... done (  0.0 sec)
Calculating Nuclear repulsion               ... done (  0.0 sec) ENN=    399.750745076274 Eh

SHARK setup successfully completed in   0.1 seconds

Maximum memory used throughout the entire GTOINT-calculation: 11.2 MB


           ************************************************************
           *        Program running with 6 parallel MPI-processes     *
           *              working on a common directory               *
           ************************************************************
-------------------------------------------------------------------------------
                                 ORCA SCF
-------------------------------------------------------------------------------

------------
SCF SETTINGS
------------
Hamiltonian:
 Density Functional     Method          .... DFT(GTOs)
 Exchange Functional    Exchange        .... PBE
   PBE kappa parameter   XKappa         ....  0.804000
   PBE mue parameter    XMuePBE         ....  0.219520
 Correlation Functional Correlation     .... PBE
   PBE beta parameter  CBetaPBE         ....  0.066725
 LDA part of GGA corr.  LDAOpt          .... PW91-LDA
 Gradients option       PostSCFGGA      .... off
   Density functional embedding theory  .... OFF
   NL short-range parameter             ....  6.400000
 RI-approximation to the Coulomb term is turned on
   Number of AuxJ basis functions       .... 480


General Settings:
 Integral files         IntName         .... m1_00_BC-PBE0-PBE
 Hartree-Fock type      HFTyp           .... RHF
 Total Charge           Charge          ....    0
 Multiplicity           Mult            ....    1
 Number of Electrons    NEL             ....   62
 Basis Dimension        Dim             ....  152
 Nuclear Repulsion      ENuc            ....    399.7507450763 Eh

Convergence Acceleration:
 DIIS                   CNVDIIS         .... on
   Start iteration      DIISMaxIt       ....    12
   Startup error        DIISStart       ....  0.200000
   # of expansion vecs  DIISMaxEq       ....     5
   Bias factor          DIISBfac        ....   1.050
   Max. coefficient     DIISMaxC        ....  10.000
 Trust-Rad. Augm. Hess. CNVTRAH         .... auto
   Auto Start mean grad. ratio tolernc. ....  1.125000
   Auto Start start iteration           ....    20
   Auto Start num. interpolation iter.  ....    10
   Max. Number of Micro iterations      ....    16
   Max. Number of Macro iterations      .... Maxiter - #DIIS iter
   Number of Davidson start vectors     ....     2
   Converg. threshold I  (grad. norm)   ....   1.000e-05
   Converg. threshold II (energy diff.) ....   1.000e-08
   Grad. Scal. Fac. for Micro threshold ....   0.100
   Minimum threshold for Micro iter.    ....   0.010
   NR start threshold (gradient norm)   ....   0.001
   Initial trust radius                 ....   0.400
   Minimum AH scaling param. (alpha)    ....   1.000
   Maximum AH scaling param. (alpha)    .... 1000.000
   Orbital update algorithm             .... Taylor
   White noise on init. David. guess    .... on
   Maximum white noise                  ....   0.010
   Quad. conv. algorithm                .... NR
 SOSCF                  CNVSOSCF        .... on
   Start iteration      SOSCFMaxIt      ....   150
   Startup grad/error   SOSCFStart      ....  0.003300
 Level Shifting         CNVShift        .... on
   Level shift para.    LevelShift      ....    0.2500
   Turn off err/grad.   ShiftErr        ....    0.0010
 Zerner damping         CNVZerner       .... off
 Static damping         CNVDamp         .... on
   Fraction old density DampFac         ....    0.7000
   Max. Damping (<1)    DampMax         ....    0.9800
   Min. Damping (>=0)   DampMin         ....    0.0000
   Turn off err/grad.   DampErr         ....    0.1000
 Fernandez-Rico         CNVRico         .... off

SCF Procedure:
 Maximum # iterations   MaxIter         ....   800
 SCF integral mode      SCFMode         .... Direct
   Integral package                     .... SHARK and LIBINT hybrid scheme
 Reset frequency        DirectResetFreq ....    20
 Integral Threshold     Thresh          ....  2.500e-11 Eh
 Primitive CutOff       TCut            ....  2.500e-12 Eh

Convergence Tolerance:
 Convergence Check Mode ConvCheckMode   .... Total+1el-Energy
 Convergence forced     ConvForced      .... 0
 Energy Change          TolE            ....  1.000e-08 Eh
 1-El. energy change                    ....  1.000e-05 Eh
 Orbital Gradient       TolG            ....  1.000e-05
 Orbital Rotation angle TolX            ....  1.000e-05
 DIIS Error             TolErr          ....  5.000e-07


Diagonalization of the overlap matrix:
Smallest eigenvalue                        ... 1.431e-03
Time for diagonalization                   ...    0.004 sec
Threshold for overlap eigenvalues          ... 1.000e-08
Number of eigenvalues below threshold      ... 0
Time for construction of square roots      ...    0.001 sec
Total time needed                          ...    0.005 sec

Time for model grid setup =    0.045 sec

------------------------------
INITIAL GUESS: MODEL POTENTIAL
------------------------------
Loading Hartree-Fock densities                     ... done
Calculating cut-offs                               ... done
Initializing the effective Hamiltonian             ... done
Setting up the integral package (SHARK)            ... done
Starting the Coulomb interaction                   ... done (   0.0 sec)
Reading the grid                                   ... done
Mapping shells                                     ... done
Starting the XC term evaluation                    ... done (   0.0 sec)
  promolecular density results
     # of electrons  =     61.999068268
     EX              =    -52.445670448
     EC              =     -2.088223453
     EX+EC           =    -54.533893901
Transforming the Hamiltonian                       ... done (   0.0 sec)
Diagonalizing the Hamiltonian                      ... done (   0.0 sec)
Back transforming the eigenvectors                 ... done (   0.0 sec)
Now organizing SCF variables                       ... done
                      ------------------
                      INITIAL GUESS DONE (   0.1 sec)
                      ------------------
-------------------
DFT GRID GENERATION
-------------------

General Integration Accuracy     IntAcc      ... 4.959
Radial Grid Type                 RadialGrid  ... OptM3 with GC (2021)
Angular Grid (max. ang.)         AngularGrid ... 6 (Lebedev-590)
Angular grid pruning method      GridPruning ... 4 (adaptive)
Weight generation scheme         WeightScheme... Becke
Basis function cutoff            BFCut       ... 1.0000e-11
Integration weight cutoff        WCut        ... 1.0000e-14
Angular grids for H and He will be reduced by one unit
Partially contracted basis set               ... off
Rotationally invariant grid construction     ... off

Total number of grid points                  ...   184066
Total number of batches                      ...     2884
Average number of points per batch           ...       63
Average number of grid points per atom       ...    11504
Time for grid setup =    1.235 sec

--------------
SCF ITERATIONS
--------------
ITER       Energy         Delta-E        Max-DP      RMS-DP      [F,P]     Damp
               ***  Starting incremental Fock matrix formation  ***
  0   -420.0116142365   0.000000000000 0.11113553  0.00285861  0.2606853 0.7000
  1   -420.1264436263  -0.114829389802 0.05388063  0.00165261  0.0752205 0.7000
                               ***Turning on DIIS***
  2   -420.1589756951  -0.032532068761 0.04873346  0.00234255  0.0209002 0.0000
  3   -420.2255238006  -0.066548105582 0.03344979  0.00112175  0.0473525 0.0000
  4   -420.2354014661  -0.009877665500 0.01777906  0.00044791  0.0273955 0.0000
                      *** Initiating the SOSCF procedure ***
                           *** Shutting down DIIS ***
                      *** Re-Reading the Fockian *** 
                      *** Removing any level shift *** 
ITER      Energy       Delta-E        Grad      Rot      Max-DP    RMS-DP
  5   -420.23728539  -0.0018839246  0.001062  0.001062  0.003831  0.000127
               *** Restarting incremental Fock matrix formation ***
  6   -420.23734428  -0.0000588854  0.001141  0.004261  0.005443  0.000119
  7   -420.23728712   0.0000571605  0.003450  0.003352  0.004077  0.000074
  8   -420.23735536  -0.0000682446  0.000048  0.000124  0.000508  0.000014
  9   -420.23735523   0.0000001289  0.000062  0.000052  0.000304  0.000007
 10   -420.23735563  -0.0000003961  0.000010  0.000032  0.000065  0.000002
 11   -420.23735563   0.0000000019  0.000015  0.000015  0.000036  0.000001
 12   -420.23735563  -0.0000000090  0.000004  0.000011  0.000023  0.000001
 13   -420.23735564  -0.0000000009  0.000007  0.000008  0.000013  0.000000
                  ***Gradient check signals convergence***
              ***Rediagonalizing the Fockian in SOSCF/NRSCF***

               *****************************************************
               *                     SUCCESS                       *
               *           SCF CONVERGED AFTER  14 CYCLES          *
               *****************************************************


----------------
TOTAL SCF ENERGY
----------------

Total Energy       :         -420.23735563 Eh          -11435.23980 eV

Components:
Nuclear Repulsion  :          399.75074508 Eh           10877.77079 eV
Electronic Energy  :         -819.98810071 Eh          -22313.01059 eV
One Electron Energy:        -1365.01780813 Eh          -37144.02292 eV
Two Electron Energy:          545.02970741 Eh           14831.01233 eV

Virial components:
Potential Energy   :         -837.14269131 Eh          -22779.81073 eV
Kinetic Energy     :          416.90533568 Eh           11344.57093 eV
Virial Ratio       :            2.00799227


DFT components:
N(Alpha)           :       31.000004891352 electrons
N(Beta)            :       31.000004891352 electrons
N(Total)           :       62.000009782704 electrons
E(X)               :      -53.329819412659 Eh       
E(C)               :       -2.097748463614 Eh       
E(XC)              :      -55.427567876272 Eh       
DFET-embed. en.    :        0.000000000000 Eh       

---------------
SCF CONVERGENCE
---------------

  Last Energy change         ...    6.7763e-10  Tolerance :   1.0000e-08
  Last MAX-Density change    ...    5.4204e-06  Tolerance :   1.0000e-07
  Last RMS-Density change    ...    2.3761e-07  Tolerance :   5.0000e-09
  Last Orbital Gradient      ...    1.0697e-06  Tolerance :   1.0000e-05
  Last Orbital Rotation      ...    1.8957e-06  Tolerance :   1.0000e-05

             **** THE GBW FILE WAS UPDATED (m1_00_BC-PBE0-PBE.gbw) ****
             **** DENSITY m1_00_BC-PBE0-PBE.scfp WAS UPDATED ****
             **** ENERGY FILE WAS UPDATED (m1_00_BC-PBE0-PBE.en.tmp) ****
             **** THE GBW FILE WAS UPDATED (m1_00_BC-PBE0-PBE.gbw) ****
             **** DENSITY m1_00_BC-PBE0-PBE.scfp WAS UPDATED ****
----------------
ORBITAL ENERGIES
----------------

  NO   OCC          E(Eh)            E(eV) 
   0   2.0000     -18.811611      -511.8899 
   1   2.0000     -18.810652      -511.8639 
   2   2.0000     -18.735551      -509.8203 
   3   2.0000     -10.047989      -273.4197 
   4   2.0000      -9.976149      -271.4648 
   5   2.0000      -9.972414      -271.3632 
   6   2.0000      -9.916333      -269.8371 
   7   2.0000      -9.899226      -269.3716 
   8   2.0000      -1.063579       -28.9414 
   9   2.0000      -0.951801       -25.8998 
  10   2.0000      -0.939353       -25.5611 
  11   2.0000      -0.745440       -20.2845 
  12   2.0000      -0.681828       -18.5535 
  13   2.0000      -0.615762       -16.7557 
  14   2.0000      -0.573897       -15.6165 
  15   2.0000      -0.542517       -14.7626 
  16   2.0000      -0.484868       -13.1939 
  17   2.0000      -0.462983       -12.5984 
  18   2.0000      -0.458405       -12.4738 
  19   2.0000      -0.414554       -11.2806 
  20   2.0000      -0.395231       -10.7548 
  21   2.0000      -0.389869       -10.6089 
  22   2.0000      -0.372676       -10.1410 
  23   2.0000      -0.360829        -9.8186 
  24   2.0000      -0.337252        -9.1771 
  25   2.0000      -0.325699        -8.8627 
  26   2.0000      -0.317891        -8.6503 
  27   2.0000      -0.313547        -8.5320 
  28   2.0000      -0.262933        -7.1548 
  29   2.0000      -0.261859        -7.1255 
  30   2.0000      -0.241709        -6.5772 
  31   0.0000       0.005596         0.1523 
  32   0.0000       0.021604         0.5879 
  33   0.0000       0.040146         1.0924 
  34   0.0000       0.045213         1.2303 
  35   0.0000       0.052126         1.4184 
  36   0.0000       0.073244         1.9931 
  37   0.0000       0.100445         2.7332 
  38   0.0000       0.102477         2.7885 
  39   0.0000       0.114924         3.1272 
  40   0.0000       0.120369         3.2754 
  41   0.0000       0.137870         3.7516 
  42   0.0000       0.153167         4.1679 
  43   0.0000       0.170529         4.6403 
  44   0.0000       0.194662         5.2970 
  45   0.0000       0.215295         5.8585 
  46   0.0000       0.292985         7.9725 
  47   0.0000       0.339045         9.2259 
  48   0.0000       0.353081         9.6078 
  49   0.0000       0.364993         9.9320 
  50   0.0000       0.377595        10.2749 
  51   0.0000       0.396316        10.7843 
  52   0.0000       0.408024        11.1029 
  53   0.0000       0.444335        12.0910 
  54   0.0000       0.459593        12.5062 
  55   0.0000       0.461446        12.5566 
  56   0.0000       0.488660        13.2971 
  57   0.0000       0.526516        14.3272 
  58   0.0000       0.548629        14.9289 
  59   0.0000       0.556892        15.1538 
  60   0.0000       0.568701        15.4751 
  61   0.0000       0.586984        15.9727 
  62   0.0000       0.593860        16.1598 
  63   0.0000       0.608031        16.5454 
  64   0.0000       0.610808        16.6209 
  65   0.0000       0.621647        16.9159 
  66   0.0000       0.628691        17.1075 
  67   0.0000       0.635028        17.2800 
  68   0.0000       0.639590        17.4041 
  69   0.0000       0.647843        17.6287 
  70   0.0000       0.660538        17.9741 
  71   0.0000       0.702655        19.1202 
  72   0.0000       0.769475        20.9385 
  73   0.0000       0.826122        22.4799 
  74   0.0000       0.857910        23.3449 
  75   0.0000       0.866291        23.5730 
  76   0.0000       0.948507        25.8102 
  77   0.0000       0.984616        26.7928 
  78   0.0000       1.006847        27.3977 
  79   0.0000       1.022901        27.8346 
  80   0.0000       1.041756        28.3476 
  81   0.0000       1.055822        28.7304 
  82   0.0000       1.079529        29.3755 
  83   0.0000       1.098705        29.8973 
  84   0.0000       1.164367        31.6840 
  85   0.0000       1.225854        33.3572 
  86   0.0000       1.268643        34.5215 
  87   0.0000       1.306221        35.5441 
  88   0.0000       1.351401        36.7735 
  89   0.0000       1.380133        37.5553 
  90   0.0000       1.414314        38.4854 
  91   0.0000       1.467527        39.9334 
  92   0.0000       1.483473        40.3673 
  93   0.0000       1.504637        40.9433 
  94   0.0000       1.520178        41.3661 
  95   0.0000       1.535179        41.7744 
  96   0.0000       1.557810        42.3902 
  97   0.0000       1.585994        43.1571 
  98   0.0000       1.645640        44.7801 
  99   0.0000       1.650158        44.9031 
 100   0.0000       1.679337        45.6971 
 101   0.0000       1.693175        46.0736 
 102   0.0000       1.713546        46.6280 
 103   0.0000       1.716142        46.6986 
 104   0.0000       1.740688        47.3665 
 105   0.0000       1.749437        47.6046 
 106   0.0000       1.766368        48.0653 
 107   0.0000       1.787166        48.6313 
 108   0.0000       1.796511        48.8856 
 109   0.0000       1.816126        49.4193 
 110   0.0000       1.838165        50.0190 
 111   0.0000       1.872749        50.9601 
 112   0.0000       1.893023        51.5118 
 113   0.0000       1.911329        52.0099 
 114   0.0000       1.939007        52.7631 
 115   0.0000       1.956171        53.2301 
 116   0.0000       1.967381        53.5352 
 117   0.0000       2.014605        54.8202 
 118   0.0000       2.095866        57.0314 
 119   0.0000       2.113936        57.5231 
 120   0.0000       2.221867        60.4601 
 121   0.0000       2.239605        60.9427 
 122   0.0000       2.264507        61.6204 
 123   0.0000       2.310999        62.8855 
 124   0.0000       2.341517        63.7159 
 125   0.0000       2.407012        65.4981 
 126   0.0000       2.452294        66.7303 
 127   0.0000       2.457820        66.8807 
 128   0.0000       2.513400        68.3931 
 129   0.0000       2.526699        68.7550 
 130   0.0000       2.602345        70.8134 
 131   0.0000       2.647393        72.0392 
 132   0.0000       2.658924        72.3530 
 133   0.0000       2.713923        73.8496 
 134   0.0000       2.726543        74.1930 
 135   0.0000       2.734835        74.4186 
 136   0.0000       2.764574        75.2279 
 137   0.0000       2.825321        76.8809 
 138   0.0000       2.865082        77.9628 
 139   0.0000       2.874654        78.2233 
 140   0.0000       2.884341        78.4869 
 141   0.0000       2.953271        80.3626 
 142   0.0000       2.964354        80.6642 
 143   0.0000       3.000659        81.6521 
 144   0.0000       3.007712        81.8440 
 145   0.0000       3.085728        83.9669 
 146   0.0000       3.135491        85.3210 
 147   0.0000       3.168850        86.2288 
 148   0.0000       3.290173        89.5302 
 149   0.0000       3.312878        90.1480 
 150   0.0000       3.600659        97.9789 
 151   0.0000       3.645298        99.1936 

                    ********************************
                    * MULLIKEN POPULATION ANALYSIS *
                    ********************************

-----------------------
MULLIKEN ATOMIC CHARGES
-----------------------
   0 C :    0.230195
   1 O :   -0.265835
   2 O :   -0.251329
   3 O :   -0.148428
   4 C :    0.248799
   5 C :   -0.035280
   6 H :    0.028799
   7 H :    0.034084
   8 C :    0.005135
   9 H :    0.024088
  10 H :    0.020278
  11 H :    0.023191
  12 C :   -0.010348
  13 H :    0.030794
  14 H :    0.020842
  15 H :    0.045014
Sum of atomic charges:    0.0000000

--------------------------------
MULLIKEN REDUCED ORBITAL CHARGES
--------------------------------
  0 C s       :     2.979543  s :     2.979543
      pz      :     0.889998  p :     2.618233
      px      :     0.866956
      py      :     0.861279
      dz2     :     0.017819  d :     0.172029
      dxz     :     0.029348
      dyz     :     0.025223
      dx2y2   :     0.060789
      dxy     :     0.038851
  1 O s       :     3.759594  s :     3.759594
      pz      :     1.684948  p :     4.488738
      px      :     1.507909
      py      :     1.295881
      dz2     :     0.002407  d :     0.017503
      dxz     :     0.003089
      dyz     :     0.003412
      dx2y2   :     0.005673
      dxy     :     0.002922
  2 O s       :     3.760365  s :     3.760365
      pz      :     1.665566  p :     4.473809
      px      :     1.254170
      py      :     1.554073
      dz2     :     0.002625  d :     0.017154
      dxz     :     0.003184
      dyz     :     0.002636
      dx2y2   :     0.003349
      dxy     :     0.005361
  3 O s       :     3.707106  s :     3.707106
      pz      :     1.447098  p :     4.421560
      px      :     1.414264
      py      :     1.560199
      dz2     :     0.002490  d :     0.019762
      dxz     :     0.003930
      dyz     :     0.002537
      dx2y2   :     0.004779
      dxy     :     0.006026
  4 C s       :     2.953703  s :     2.953703
      pz      :     0.968512  p :     2.741926
      px      :     0.786884
      py      :     0.986529
      dz2     :     0.008211  d :     0.055571
      dxz     :     0.012256
      dyz     :     0.011198
      dx2y2   :     0.010216
      dxy     :     0.013689
  5 C s       :     3.113598  s :     3.113598
      pz      :     1.102745  p :     2.856787
      px      :     0.905468
      py      :     0.848573
      dz2     :     0.012966  d :     0.064896
      dxz     :     0.012257
      dyz     :     0.007751
      dx2y2   :     0.011788
      dxy     :     0.020134
  6 H s       :     0.949158  s :     0.949158
      pz      :     0.008515  p :     0.022043
      px      :     0.005193
      py      :     0.008335
  7 H s       :     0.944236  s :     0.944236
      pz      :     0.011147  p :     0.021680
      px      :     0.003703
      py      :     0.006830
  8 C s       :     2.999979  s :     2.999979
      pz      :     1.004645  p :     2.961555
      px      :     0.937412
      py      :     1.019498
      dz2     :     0.008001  d :     0.033331
      dxz     :     0.007688
      dyz     :     0.003378
      dx2y2   :     0.005424
      dxy     :     0.008839
  9 H s       :     0.955574  s :     0.955574
      pz      :     0.012853  p :     0.020337
      px      :     0.004577
      py      :     0.002907
 10 H s       :     0.957166  s :     0.957166
      pz      :     0.012121  p :     0.022555
      px      :     0.005874
      py      :     0.004560
 11 H s       :     0.953978  s :     0.953978
      pz      :     0.005062  p :     0.022831
      px      :     0.008357
      py      :     0.009412
 12 C s       :     2.990008  s :     2.990008
      pz      :     1.002149  p :     2.995003
      px      :     1.005217
      py      :     0.987637
      dz2     :     0.005281  d :     0.025337
      dxz     :     0.006706
      dyz     :     0.002134
      dx2y2   :     0.004289
      dxy     :     0.006928
 13 H s       :     0.945530  s :     0.945530
      pz      :     0.009238  p :     0.023676
      px      :     0.009489
      py      :     0.004949
 14 H s       :     0.955351  s :     0.955351
      pz      :     0.011866  p :     0.023807
      px      :     0.007217
      py      :     0.004725
 15 H s       :     0.930883  s :     0.930883
      pz      :     0.005547  p :     0.024103
      px      :     0.008681
      py      :     0.009875


                     *******************************
                     * LOEWDIN POPULATION ANALYSIS *
                     *******************************

----------------------
LOEWDIN ATOMIC CHARGES
----------------------
   0 C :    0.026603
   1 O :   -0.070561
   2 O :   -0.066249
   3 O :   -0.129567
   4 C :    0.073565
   5 C :    0.045894
   6 H :    0.028399
   7 H :    0.024746
   8 C :   -0.053903
   9 H :    0.026370
  10 H :    0.031984
  11 H :    0.032373
  12 C :   -0.064220
  13 H :    0.032217
  14 H :    0.027873
  15 H :    0.034478

-------------------------------
LOEWDIN REDUCED ORBITAL CHARGES
-------------------------------
  0 C s       :     2.806962  s :     2.806962
      pz      :     0.895656  p :     2.789588
      px      :     0.958925
      py      :     0.935008
      dz2     :     0.036984  d :     0.376847
      dxz     :     0.063131
      dyz     :     0.050862
      dx2y2   :     0.138744
      dxy     :     0.087126
  1 O s       :     3.465998  s :     3.465998
      pz      :     1.682469  p :     4.571182
      px      :     1.523561
      py      :     1.365153
      dz2     :     0.004134  d :     0.033381
      dxz     :     0.004856
      dyz     :     0.005684
      dx2y2   :     0.013098
      dxy     :     0.005609
  2 O s       :     3.467321  s :     3.467321
      pz      :     1.665716  p :     4.565880
      px      :     1.314228
      py      :     1.585936
      dz2     :     0.004131  d :     0.033048
      dxz     :     0.007147
      dyz     :     0.003644
      dx2y2   :     0.006850
      dxy     :     0.011277
  3 O s       :     3.532790  s :     3.532790
      pz      :     1.452421  p :     4.563045
      px      :     1.502686
      py      :     1.607938
      dz2     :     0.004568  d :     0.033732
      dxz     :     0.005975
      dyz     :     0.003749
      dx2y2   :     0.006816
      dxy     :     0.012624
  4 C s       :     2.852391  s :     2.852391
      pz      :     1.037720  p :     2.941554
      px      :     0.880409
      py      :     1.023424
      dz2     :     0.018399  d :     0.132490
      dxz     :     0.027138
      dyz     :     0.030437
      dx2y2   :     0.021483
      dxy     :     0.035034
  5 C s       :     2.858823  s :     2.858823
      pz      :     1.084899  p :     2.944439
      px      :     0.952336
      py      :     0.907204
      dz2     :     0.030303  d :     0.150844
      dxz     :     0.032928
      dyz     :     0.014446
      dx2y2   :     0.024718
      dxy     :     0.048450
  6 H s       :     0.904254  s :     0.904254
      pz      :     0.025687  p :     0.067347
      px      :     0.016530
      py      :     0.025130
  7 H s       :     0.907689  s :     0.907689
      pz      :     0.034322  p :     0.067565
      px      :     0.011961
      py      :     0.021282
  8 C s       :     2.841941  s :     2.841941
      pz      :     1.047337  p :     3.123995
      px      :     1.030317
      py      :     1.046340
      dz2     :     0.021025  d :     0.087967
      dxz     :     0.022172
      dyz     :     0.006990
      dx2y2   :     0.013243
      dxy     :     0.024538
  9 H s       :     0.905928  s :     0.905928
      pz      :     0.040658  p :     0.067702
      px      :     0.016016
      py      :     0.011028
 10 H s       :     0.900377  s :     0.900377
      pz      :     0.037228  p :     0.067639
      px      :     0.017215
      py      :     0.013196
 11 H s       :     0.900208  s :     0.900208
      pz      :     0.013339  p :     0.067418
      px      :     0.024883
      py      :     0.029196
 12 C s       :     2.834105  s :     2.834105
      pz      :     1.067360  p :     3.161259
      px      :     1.057517
      py      :     1.036382
      dz2     :     0.015120  d :     0.068857
      dxz     :     0.018512
      dyz     :     0.004609
      dx2y2   :     0.010213
      dxy     :     0.020403
 13 H s       :     0.900869  s :     0.900869
      pz      :     0.025767  p :     0.066915
      px      :     0.026877
      py      :     0.014271
 14 H s       :     0.905723  s :     0.905723
      pz      :     0.034733  p :     0.066404
      px      :     0.018406
      py      :     0.013265
 15 H s       :     0.897528  s :     0.897528
      pz      :     0.012975  p :     0.067994
      px      :     0.024648
      py      :     0.030371


                      *****************************
                      * MAYER POPULATION ANALYSIS *
                      *****************************

  NA   - Mulliken gross atomic population
  ZA   - Total nuclear charge
  QA   - Mulliken gross atomic charge
  VA   - Mayer's total valence
  BVA  - Mayer's bonded valence
  FA   - Mayer's free valence

  ATOM       NA         ZA         QA         VA         BVA        FA
  0 C      5.7698     6.0000     0.2302     4.4391     4.4391     0.0000
  1 O      8.2658     8.0000    -0.2658     2.2296     2.2296     0.0000
  2 O      8.2513     8.0000    -0.2513     2.2110     2.2110     0.0000
  3 O      8.1484     8.0000    -0.1484     2.3845     2.3845     0.0000
  4 C      5.7512     6.0000     0.2488     3.9379     3.9379    -0.0000
  5 C      6.0353     6.0000    -0.0353     4.1551     4.1551     0.0000
  6 H      0.9712     1.0000     0.0288     0.9956     0.9956    -0.0000
  7 H      0.9659     1.0000     0.0341     0.9752     0.9752     0.0000
  8 C      5.9949     6.0000     0.0051     4.0192     4.0192     0.0000
  9 H      0.9759     1.0000     0.0241     0.9815     0.9815     0.0000
 10 H      0.9797     1.0000     0.0203     0.9923     0.9923     0.0000
 11 H      0.9768     1.0000     0.0232     0.9789     0.9789     0.0000
 12 C      6.0103     6.0000    -0.0103     4.0192     4.0192    -0.0000
 13 H      0.9692     1.0000     0.0308     0.9846     0.9846    -0.0000
 14 H      0.9792     1.0000     0.0208     0.9901     0.9901    -0.0000
 15 H      0.9550     1.0000     0.0450     1.0022     1.0022     0.0000

  Mayer bond orders larger than 0.100000
B(  0-C ,  1-O ) :   1.0979 B(  0-C ,  2-O ) :   1.1010 B(  0-C ,  3-O ) :   2.1937 
B(  1-O ,  4-C ) :   0.9721 B(  2-O ,  5-C ) :   0.9769 B(  4-C ,  5-C ) :   1.0570 
B(  4-C ,  6-H ) :   0.9400 B(  4-C ,  7-H ) :   0.9323 B(  5-C ,  8-C ) :   1.0416 
B(  5-C ,  9-H ) :   0.9215 B(  8-C , 10-H ) :   0.9195 B(  8-C , 11-H ) :   0.9253 
B(  8-C , 12-C ) :   1.1191 B( 12-C , 13-H ) :   0.9610 B( 12-C , 14-H ) :   0.9627 
B( 12-C , 15-H ) :   0.9638 


------------------
HIRSHFELD ANALYSIS
------------------

Total integrated alpha density =     31.000004891
Total integrated beta density  =     31.000004891

  ATOM     CHARGE      SPIN    
   0 C    0.254094    0.000000
   1 O   -0.129237    0.000000
   2 O   -0.125052    0.000000
   3 O   -0.272533    0.000000
   4 C    0.043310    0.000000
   5 C    0.067969    0.000000
   6 H    0.044626    0.000000
   7 H    0.039388    0.000000
   8 C   -0.041882    0.000000
   9 H    0.038168    0.000000
  10 H    0.030727    0.000000
  11 H    0.031292    0.000000
  12 C   -0.072779    0.000000
  13 H    0.031812    0.000000
  14 H    0.027790    0.000000
  15 H    0.032299    0.000000

  TOTAL  -0.000010    0.000000

-------
TIMINGS
-------

Total SCF time: 0 days 0 hours 0 min 4 sec 

Total time                  ....       4.990 sec
Sum of individual times     ....       4.869 sec  ( 97.6%)

Fock matrix formation       ....       3.144 sec  ( 63.0%)
  Split-RI-J                ....       0.515 sec  ( 16.4% of F)
  XC integration            ....       2.618 sec  ( 83.3% of F)
    Basis function eval.    ....       1.011 sec  ( 38.6% of XC)
    Density eval.           ....       0.550 sec  ( 21.0% of XC)
    XC-Functional eval.     ....       0.253 sec  (  9.7% of XC)
    XC-Potential eval.      ....       0.456 sec  ( 17.4% of XC)
Diagonalization             ....       0.017 sec  (  0.3%)
Density matrix formation    ....       0.002 sec  (  0.0%)
Population analysis         ....       0.350 sec  (  7.0%)
Initial guess               ....       0.044 sec  (  0.9%)
Orbital Transformation      ....       0.000 sec  (  0.0%)
Orbital Orthonormalization  ....       0.000 sec  (  0.0%)
DIIS solution               ....       0.011 sec  (  0.2%)
SOSCF solution              ....       0.021 sec  (  0.4%)
Grid generation             ....       1.280 sec  ( 25.7%)

Maximum memory used throughout the entire SCF-calculation: 40.4 MB


-------------------------------------------------------------------------------
                          DFT DISPERSION CORRECTION                            
                                                                               
                              DFTD3 V3.1  Rev 1                                
                          USING Becke-Johnson damping                          
-------------------------------------------------------------------------------
The PBE functional is recognized
Active option DFTDOPT                   ...         4   

molecular C6(AA) [au] = 2107.732733 


            DFT-D V3
 parameters
 s6 scaling factor         :     1.0000 
 a1 scaling factor         :     0.4289 
 s8 scaling factor         :     0.7875 
 a2 scaling factor         :     4.4407 
 ad hoc parameters k1-k3   :    16.0000     1.3333    -4.0000 

 Edisp/kcal,au: -8.373729060759  -0.013344385246 
 E6   /kcal   :  -5.994579162 
 E8   /kcal   :  -2.379149899 
 % E8         :  28.412071631 

-------------------------   ----------------
Dispersion correction           -0.013344385
-------------------------   ----------------


-------------------------   --------------------
FINAL SINGLE POINT ENERGY      -420.250700019876
-------------------------   --------------------



           ************************************************************
           *        Program running with 6 parallel MPI-processes     *
           *              working on a common directory               *
           ************************************************************
------------------------------------------------------------------------------
                         ORCA SCF GRADIENT CALCULATION
------------------------------------------------------------------------------

Gradient of the Kohn-Sham DFT energy:
Kohn-Sham wavefunction type      ... RKS
Hartree-Fock exchange scaling    ...    0.000
Number of operators              ...    1
Number of atoms                  ...   16
Basis set dimensions             ...  152
Integral neglect threshold       ... 2.5e-11
Integral primitive cutoff        ... 2.5e-12
SHARK Integral package           ... ON

Nuc. rep. gradient       (SHARK) ... done (  0.0 sec)
HCore & Overlap gradient (SHARK) ... done (  0.0 sec)
RI-J gradient            (SHARK) ... done (  0.2 sec)
Exchange-correlation gradient    ... done
Dispersion correction            ... done

------------------
CARTESIAN GRADIENT
------------------

   1   C   :   -0.003500019    0.003592950    0.000781790
   2   O   :    0.003235293    0.013482638   -0.005451688
   3   O   :   -0.009746342   -0.010313607    0.008476779
   4   O   :    0.022665005   -0.016998499   -0.007029334
   5   C   :    0.002694477   -0.002540922   -0.001406989
   6   C   :    0.000225806   -0.000298792   -0.004541069
   7   H   :   -0.005514372    0.007992388   -0.006566968
   8   H   :    0.002211587    0.006558772    0.009731439
   9   C   :   -0.001269606   -0.005111459    0.004710306
  10   H   :   -0.004979761    0.000503838    0.010457600
  11   H   :    0.004429987    0.000698354   -0.009508778
  12   H   :   -0.006530083    0.008331142   -0.000075013
  13   C   :    0.001810021    0.004886411   -0.001741648
  14   H   :   -0.007893503   -0.001978572   -0.007251744
  15   H   :   -0.004731136   -0.000362703    0.009524761
  16   H   :    0.006892646   -0.008441938   -0.000109446

Difference to translation invariance:
           :    0.0000000000    0.0000000000   -0.0000000000

Difference to rotation invariance:
           :    0.0000046280    0.0000281004    0.0000263545

Norm of the cartesian gradient     ...    0.0497739195
RMS gradient                       ...    0.0071842465
MAX gradient                       ...    0.0226650055

-------
TIMINGS
-------

Total SCF gradient time            ...        2.040 sec

One electron gradient       ....       0.034 sec  (  1.7%)
RI-J Coulomb gradient       ....       0.218 sec  ( 10.7%)
XC gradient                 ....       1.227 sec  ( 60.1%)

Maximum memory used throughout the entire SCFGRAD-calculation: 34.5 MB
------------------------------------------------------------------------------
                         ORCA GEOMETRY RELAXATION STEP
------------------------------------------------------------------------------

Reading the OPT-File                    .... done
Getting information on internals        .... done
Copying old internal coords+grads       .... done
Making the new internal coordinates     .... (new redundants).... done
Validating the new internal coordinates .... (new redundants).... done
Calculating the B-matrix                .... done
Calculating the G,G- and P matrices     .... done
Transforming gradient to internals      .... done
Projecting the internal gradient        .... done
Number of atoms                         ....  16
Number of internal coordinates          ....  82
Current Energy                          ....  -420.250700020 Eh
Current gradient norm                   ....     0.049773920 Eh/bohr
Maximum allowed component of the step   ....  0.300
Current trust radius                    ....  0.300
Evaluating the initial hessian          ....  (Almloef) done
Projecting the Hessian                  .... done
Forming the augmented Hessian           .... done
Diagonalizing the augmented Hessian     .... done
Last element of RFO vector              ....  0.993695457
Lowest eigenvalues of augmented Hessian:
 -0.005380209  0.012169045  0.012517866  0.015418064  0.025682261
Length of the computed step             ....  0.112824365
The final length of the internal step   ....  0.112824365
Converting the step to cartesian space:
 Initial RMS(Int)=    0.0124593668
Transforming coordinates:
 Iter   0:  RMS(Cart)=    0.0241277996 RMS(Int)=    0.0124547823
 Iter   1:  RMS(Cart)=    0.0000568528 RMS(Int)=    0.0000414851
 Iter   2:  RMS(Cart)=    0.0000006801 RMS(Int)=    0.0000005857
 Iter   3:  RMS(Cart)=    0.0000000088 RMS(Int)=    0.0000000079
done
Storing new coordinates                 .... done

                                .--------------------.
          ----------------------|Geometry convergence|-------------------------
          Item                value                   Tolerance       Converged
          ---------------------------------------------------------------------
          RMS gradient        0.0059097842            0.0000300000      NO
          MAX gradient        0.0291896626            0.0001000000      NO
          RMS step            0.0124593668            0.0020000000      NO
          MAX step            0.0328756590            0.0040000000      NO
          ........................................................
          Max(Bonds)      0.0174      Max(Angles)    0.37
          Max(Dihed)        0.57      Max(Improp)    0.00
          ---------------------------------------------------------------------

The optimization has not yet converged - more geometry cycles are needed


    ---------------------------------------------------------------------------
                         Redundant Internal Coordinates
                            (Angstroem and degrees)

        Definition                    Value    dE/dq     Step     New-Value
    ----------------------------------------------------------------------------
     1. B(O   1,C   0)                1.3486 -0.016582  0.0143    1.3629   
     2. B(O   2,C   0)                1.3468 -0.017418  0.0148    1.3616   
     3. B(O   3,C   0)                1.1853 -0.029190  0.0130    1.1982   
     4. B(C   4,O   1)                1.4198 -0.008396  0.0085    1.4283   
     5. B(C   5,C   4)                1.5280 -0.011260  0.0138    1.5418   
     6. B(C   5,O   2)                1.4305 -0.009280  0.0096    1.4401   
     7. B(H   6,C   4)                1.0904 -0.011651  0.0169    1.1073   
     8. B(H   7,C   4)                1.0927 -0.011900  0.0174    1.1101   
     9. B(C   8,C   5)                1.5135 -0.008591  0.0113    1.5248   
    10. B(H   9,C   5)                1.0925 -0.011568  0.0169    1.1094   
    11. B(H  10,C   8)                1.0959 -0.010490  0.0155    1.1114   
    12. B(H  11,C   8)                1.0958 -0.010574  0.0156    1.1114   
    13. B(C  12,C   8)                1.5174 -0.007042  0.0094    1.5268   
    14. B(H  13,C  12)                1.0911 -0.010887  0.0158    1.1070   
    15. B(H  14,C  12)                1.0934 -0.010634  0.0156    1.1089   
    16. B(H  15,C  12)                1.0909 -0.010895  0.0158    1.1068   
    17. A(O   2,C   0,O   3)          124.93 -0.002005    0.17    125.09   
    18. A(O   1,C   0,O   2)          110.39  0.004308   -0.37    110.02   
    19. A(O   1,C   0,O   3)          124.68 -0.002303    0.20    124.89   
    20. A(C   0,O   1,C   4)          109.74 -0.001122    0.19    109.93   
    21. A(C   0,O   2,C   5)          110.22 -0.000832    0.10    110.32   
    22. A(H   6,C   4,H   7)          109.54  0.000454   -0.27    109.27   
    23. A(O   1,C   4,C   5)          103.67 -0.001415   -0.03    103.65   
    24. A(C   5,C   4,H   7)          112.83  0.000419   -0.04    112.78   
    25. A(O   1,C   4,H   7)          108.99 -0.000094    0.18    109.17   
    26. A(C   5,C   4,H   6)          112.77  0.000284   -0.00    112.77   
    27. A(O   1,C   4,H   6)          108.78  0.000243    0.20    108.98   
    28. A(O   2,C   5,C   8)          110.50  0.000211    0.12    110.61   
    29. A(O   2,C   5,C   4)          102.16 -0.000933    0.01    102.16   
    30. A(O   2,C   5,H   9)          107.02  0.000239    0.01    107.03   
    31. A(C   4,C   5,C   8)          114.10 -0.000183    0.18    114.28   
    32. A(C   8,C   5,H   9)          110.54  0.000365   -0.22    110.32   
    33. A(C   4,C   5,H   9)          112.01  0.000239   -0.07    111.93   
    34. A(H  10,C   8,C  12)          110.54  0.000027   -0.01    110.53   
    35. A(C   5,C   8,C  12)          113.10 -0.001151    0.24    113.34   
    36. A(H  10,C   8,H  11)          106.62  0.000081   -0.17    106.46   
    37. A(C   5,C   8,H  11)          107.43  0.000176    0.04    107.48   
    38. A(H  11,C   8,C  12)          110.40  0.000159    0.07    110.47   
    39. A(C   5,C   8,H  10)          108.48  0.000789   -0.20    108.28   
    40. A(H  14,C  12,H  15)          107.88  0.000250   -0.10    107.77   
    41. A(H  13,C  12,H  15)          108.09  0.000148   -0.01    108.08   
    42. A(C   8,C  12,H  15)          110.89  0.000379   -0.08    110.81   
    43. A(H  13,C  12,H  14)          107.80  0.000475   -0.05    107.76   
    44. A(C   8,C  12,H  14)          111.08 -0.000437    0.07    111.15   
    45. A(C   8,C  12,H  13)          110.96 -0.000772    0.16    111.12   
    46. D(C   4,O   1,C   0,O   3)    173.98  0.000062   -0.20    173.78   
    47. D(C   4,O   1,C   0,O   2)     -6.02 -0.000116   -0.05     -6.07   
    48. D(C   5,O   2,C   0,O   3)    172.42 -0.000066    0.00    172.42   
    49. D(C   5,O   2,C   0,O   1)     -7.58  0.000113   -0.15     -7.72   
    50. D(C   5,C   4,O   1,C   0)     15.86 -0.000047    0.18     16.04   
    51. D(H   7,C   4,O   1,C   0)   -104.53  0.000278    0.16   -104.37   
    52. D(H   6,C   4,O   1,C   0)    136.09 -0.000359    0.26    136.36   
    53. D(C   8,C   5,C   4,O   1)    100.22 -0.000030   -0.02    100.20   
    54. D(O   2,C   5,C   4,H   6)   -136.51  0.000818   -0.47   -136.99   
    55. D(O   2,C   5,C   4,O   1)    -19.03  0.000398   -0.25    -19.29   
    56. D(H   9,C   5,O   2,C   0)    134.40 -0.000181    0.16    134.56   
    57. D(O   2,C   5,C   4,H   7)     98.72 -0.000360   -0.07     98.65   
    58. D(H   9,C   5,C   4,H   6)    109.28  0.000945   -0.46    108.82   
    59. D(C   8,C   5,C   4,H   6)    -17.25  0.000390   -0.24    -17.50   
    60. D(H   9,C   5,C   4,O   1)   -133.24  0.000525   -0.24   -133.48   
    61. D(C   4,C   5,O   2,C   0)     16.57 -0.000118    0.24     16.81   
    62. D(C   8,C   5,C   4,H   7)   -142.02 -0.000788    0.16   -141.86   
    63. D(H   9,C   5,C   4,H   7)    -15.48 -0.000233   -0.06    -15.54   
    64. D(C   8,C   5,O   2,C   0)   -105.19  0.000529   -0.03   -105.23   
    65. D(C  12,C   8,C   5,H   9)     57.66 -0.000147    0.52     58.18   
    66. D(C  12,C   8,C   5,O   2)    -60.62 -0.000804    0.57    -60.05   
    67. D(H  11,C   8,C   5,H   9)    -64.42  0.000263    0.24    -64.18   
    68. D(H  11,C   8,C   5,C   4)     62.87  0.000751    0.10     62.97   
    69. D(H  11,C   8,C   5,O   2)    177.30 -0.000393    0.30    177.59   
    70. D(H  10,C   8,C   5,H   9)   -179.33 -0.000318    0.52   -178.81   
    71. D(C  12,C   8,C   5,C   4)   -175.04  0.000340    0.38   -174.66   
    72. D(H  10,C   8,C   5,C   4)    -52.03  0.000169    0.38    -51.66   
    73. D(H  10,C   8,C   5,O   2)     62.39 -0.000975    0.57     62.96   
    74. D(H  13,C  12,C   8,H  11)    -59.90 -0.000138    0.00    -59.89   
    75. D(H  13,C  12,C   8,H  10)     57.83  0.000077   -0.17     57.67   
    76. D(H  13,C  12,C   8,C   5)    179.69  0.000307   -0.27    179.43   
    77. D(H  15,C  12,C   8,H  11)    179.96 -0.000065   -0.04    179.92   
    78. D(H  15,C  12,C   8,H  10)    -62.31  0.000150   -0.21    -62.51   
    79. D(H  15,C  12,C   8,C   5)     59.55  0.000380   -0.31     59.24   
    80. D(H  14,C  12,C   8,H  11)     60.00 -0.000343    0.10     60.11   
    81. D(H  14,C  12,C   8,H  10)    177.74 -0.000128   -0.07    177.67   
    82. D(H  14,C  12,C   8,C   5)    -60.41  0.000102   -0.17    -60.57   
    ----------------------------------------------------------------------------

         *************************************************************
         *                GEOMETRY OPTIMIZATION CYCLE   2            *
         *************************************************************
---------------------------------
CARTESIAN COORDINATES (ANGSTROEM)
---------------------------------
  C     -1.320035    0.267936    0.083352
  O     -1.241126   -1.070719    0.326592
  O     -0.187994    0.695863   -0.540520
  O     -2.251283    0.963602    0.374195
  C     -0.062799   -1.606675   -0.277098
  C      0.791761   -0.358994   -0.577551
  H      0.424888   -2.298388    0.436910
  H     -0.344855   -2.165495   -1.193843
  C      1.899540   -0.098548    0.437285
  H      1.208254   -0.379723   -1.605553
  H      1.449968   -0.106271    1.453723
  H      2.599477   -0.960896    0.396034
  C      2.648492    1.209309    0.193020
  H      3.435889    1.366341    0.955055
  H      3.136463    1.211057   -0.802781
  H      1.956219    2.071965    0.231551

----------------------------
CARTESIAN COORDINATES (A.U.)
----------------------------
  NO LB      ZA    FRAG     MASS         X           Y           Z
   0 C     6.0000    0    12.011   -2.494504    0.506327    0.157513
   1 O     8.0000    0    15.999   -2.345388   -2.023366    0.617170
   2 O     8.0000    0    15.999   -0.355257    1.314991   -1.021436
   3 O     8.0000    0    15.999   -4.254309    1.820943    0.707125
   4 C     6.0000    0    12.011   -0.118674   -3.036176   -0.523640
   5 C     6.0000    0    12.011    1.496211   -0.678399   -1.091413
   6 H     1.0000    0     1.008    0.802922   -4.343323    0.825640
   7 H     1.0000    0     1.008   -0.651682   -4.092192   -2.256037
   8 C     6.0000    0    12.011    3.589611   -0.186229    0.826349
   9 H     1.0000    0     1.008    2.283270   -0.717572   -3.034056
  10 H     1.0000    0     1.008    2.740043   -0.200824    2.747138
  11 H     1.0000    0     1.008    4.912299   -1.815831    0.748395
  12 C     6.0000    0    12.011    5.004925    2.285263    0.364755
  13 H     1.0000    0     1.008    6.492888    2.582011    1.804793
  14 H     1.0000    0     1.008    5.927056    2.288567   -1.517037
  15 H     1.0000    0     1.008    3.696718    3.915447    0.437567

--------------------------------
INTERNAL COORDINATES (ANGSTROEM)
--------------------------------
 C      0   0   0     0.000000000000     0.00000000     0.00000000
 O      1   0   0     1.362861498859     0.00000000     0.00000000
 O      1   2   0     1.361563616604   110.02000916     0.00000000
 O      1   2   3     1.198233467876   124.88572549   179.85194704
 C      2   1   3     1.428336223143   109.93155083   353.92500936
 C      3   1   2     1.440143108961   110.31667991   352.27526598
 H      5   2   1     1.107299748211   108.97797199   136.35565347
 H      5   2   1     1.110070201398   109.16724153   255.62643487
 C      6   3   1     1.524761833560   110.61223929   254.77279228
 H      6   3   1     1.109362847695   107.03336748   134.56224066
 H      9   6   3     1.111449767059   108.27712745    62.96225342
 H      9   6   3     1.111421243782   107.47609910   177.59234986
 C      9   6   3     1.526788871496   113.34247164   299.95367715
 H     13   9   6     1.106955567176   111.11938987   179.42677196
 H     13   9   6     1.108935629675   111.15363458   299.42568561
 H     13   9   6     1.106753500254   110.81042295    59.24352035

---------------------------
INTERNAL COORDINATES (A.U.)
---------------------------
 C      0   0   0     0.000000000000     0.00000000     0.00000000
 O      1   0   0     2.575434991308     0.00000000     0.00000000
 O      1   2   0     2.572982349293   110.02000916     0.00000000
 O      1   2   3     2.264333098785   124.88572549   179.85194704
 C      2   1   3     2.699164288901   109.93155083   353.92500936
 C      3   1   2     2.721476069590   110.31667991   352.27526598
 H      5   2   1     2.092493272279   108.97797199   136.35565347
 H      5   2   1     2.097728670069   109.16724153   255.62643487
 C      6   3   1     2.881382284885   110.61223929   254.77279228
 H      6   3   1     2.096391965291   107.03336748   134.56224066
 H      9   6   3     2.100335671351   108.27712745    62.96225342
 H      9   6   3     2.100281770170   107.47609910   177.59234986
 C      9   6   3     2.885212831446   113.34247164   299.95367715
 H     13   9   6     2.091842864382   111.11938987   179.42677196
 H     13   9   6     2.095584640234   111.15363458   299.42568561
 H     13   9   6     2.091461013240   110.81042295    59.24352035



           ************************************************************
           *        Program running with 6 parallel MPI-processes     *
           *              working on a common directory               *
           ************************************************************
------------------------------------------------------------------------------
                   ___                                                        
                  /   \      - P O W E R E D   B Y -                         
                 /     \                                                     
                 |  |  |   _    _      __       _____    __    __             
                 |  |  |  | |  | |    /  \     |  _  \  |  |  /  |          
                  \  \/   | |  | |   /    \    | | | |  |  | /  /          
                 / \  \   | |__| |  /  /\  \   | |_| |  |  |/  /          
                |  |  |   |  __  | /  /__\  \  |    /   |      \           
                |  |  |   | |  | | |   __   |  |    \   |  |\   \          
                \     /   | |  | | |  |  |  |  | |\  \  |  | \   \       
                 \___/    |_|  |_| |__|  |__|  |_| \__\ |__|  \__/        
                                                                              
                      - O R C A' S   B I G   F R I E N D -                    
[...]
     37       0.016855  -0.028062  -0.081254   0.100987   0.032230   0.015250
     38      -0.048529   0.011704   0.024285  -0.001495   0.021834  -0.003964
     39      -0.096407   0.041011   0.054911  -0.062973  -0.006899   0.086267
     40      -0.197590   0.158336   0.378305  -0.371816  -0.053064   0.024803
     41       0.061048  -0.065920  -0.155302   0.222730   0.071780  -0.083297
     42       0.096836   0.012934   0.047427  -0.208822  -0.157896   0.152153
     43      -0.072642   0.148411   0.342038  -0.344823  -0.013853  -0.113338
     44       0.028147   0.012877   0.061223  -0.143269  -0.073892   0.075124
     45       0.001592   0.101659   0.321585  -0.363814  -0.040438  -0.096182
     46       0.037813   0.064157   0.229613  -0.270560  -0.019889  -0.073414
     47       0.128566  -0.052896  -0.087398  -0.028450  -0.136461   0.133192
                 36         37         38         39         40         41    
      0      -0.001723  -0.001702  -0.013430  -0.649675  -0.000397   0.000074
      1      -0.004295  -0.001465  -0.015756   0.502233  -0.000542   0.000336
      2       0.002337   0.001442   0.010611   0.210440   0.000453  -0.000079
      3       0.000313   0.000221  -0.003386   0.025185  -0.000209   0.000289
      4       0.001638   0.001291   0.019539  -0.026162   0.000274  -0.000124
      5      -0.000758  -0.000099   0.002663  -0.008190  -0.000131  -0.000078
      6      -0.000038   0.001348   0.006474   0.029177   0.000170  -0.000169
      7       0.003092   0.001252   0.000518  -0.017150   0.000208   0.000188
      8      -0.000680  -0.000080  -0.004779  -0.010732  -0.000166   0.000024
      9       0.000113   0.001223   0.004487   0.396300   0.000104  -0.000012
     10       0.000700  -0.000601  -0.001107  -0.305563   0.000020  -0.000024
     11      -0.000311  -0.000508  -0.002055  -0.128792  -0.000069   0.000005
     12      -0.000487  -0.000446  -0.022505   0.023494  -0.000146  -0.001509
     13      -0.000466   0.005725   0.075610  -0.023780   0.005408  -0.009379
     14       0.002745   0.003452   0.017339  -0.007613   0.002033  -0.006589
     15      -0.007627  -0.014789   0.000004   0.034978   0.001454   0.000234
     16      -0.010139  -0.008494  -0.002563  -0.014870  -0.001068   0.000093
     17      -0.003609  -0.009076   0.004170  -0.004277  -0.006007   0.001389
     18       0.006800  -0.006174  -0.044373   0.021042   0.026580  -0.029921
     19       0.010094  -0.032489  -0.473487  -0.018430  -0.031644   0.040201
     20       0.007922  -0.029661  -0.507456   0.032151   0.035355  -0.042270
     21       0.007705   0.034860   0.370947  -0.064911  -0.019609   0.043141
     22       0.022725  -0.021685  -0.556179   0.006244  -0.029023   0.067723
     23      -0.013152   0.005458   0.226221  -0.013003  -0.056699   0.120279
     24       0.027696   0.034124  -0.004596  -0.004121   0.011821   0.004337
     25      -0.016018   0.003820  -0.005012   0.002278  -0.043501  -0.003426
     26       0.003178   0.043474  -0.003419   0.000971   0.052484   0.000462
     27       0.042351   0.010716   0.002753  -0.001106  -0.025893   0.003213
     28       0.029137   0.017835   0.042781  -0.003289   0.003653  -0.001677
     29       0.012210   0.000086   0.004802  -0.038698   0.063313  -0.013391
     30      -0.063579  -0.165570  -0.011504   0.013158   0.302919   0.004174
     31       0.129527   0.052336   0.039713   0.006653  -0.001319  -0.002219
     32      -0.040968  -0.046189  -0.009230   0.008275  -0.653336  -0.008272
     33      -0.016305  -0.012093   0.021846  -0.016771  -0.440192  -0.049410
     34      -0.050063  -0.023168   0.020826  -0.013280   0.514643   0.056348
     35      -0.110488  -0.174925  -0.026575  -0.014983   0.035539   0.002721
     36       0.034307   0.011653   0.001452  -0.001507  -0.000693  -0.029120
     37      -0.015066  -0.010553   0.001575   0.000221   0.003058  -0.037852
     38      -0.017743   0.041418  -0.001213  -0.001953  -0.005025   0.019082
     39      -0.469693   0.026411  -0.002487  -0.004603   0.013910   0.349914
     40       0.232402  -0.386138   0.031420   0.000794   0.000258   0.072071
     41       0.423348   0.090024  -0.002435   0.006406   0.015648   0.365525
     42      -0.464394  -0.305106   0.013964   0.002579  -0.025625   0.307480
     43      -0.155352   0.464157  -0.041462  -0.003609   0.000479  -0.003680
     44      -0.259659  -0.131131   0.005533  -0.000604   0.045358  -0.609069
     45       0.329364   0.029009  -0.005775   0.009319   0.023419  -0.320686
     46       0.243263   0.029001  -0.006082   0.008585  -0.028350   0.369094
     47       0.164540  -0.664480   0.047805   0.010813  -0.002923   0.015276
                 42         43         44         45         46         47    
      0      -0.000295  -0.001137  -0.001436   0.000261  -0.000050  -0.000285
      1       0.002530   0.000399   0.000170  -0.000824  -0.000051  -0.000001
      2      -0.000312   0.000325   0.000227  -0.000475  -0.000033   0.000138
      3       0.001977  -0.000265  -0.000392   0.000392  -0.000079   0.000022
      4      -0.001087  -0.000053   0.000159   0.000066   0.000029   0.000080
      5      -0.000407   0.000078   0.000198   0.000988   0.000045  -0.000055
      6      -0.000644   0.001014   0.000272   0.000339   0.000026   0.000070
      7       0.000339  -0.000630  -0.000154  -0.000669   0.000086   0.000234
      8       0.000095   0.000358   0.000460  -0.000025   0.000065   0.000008
      9       0.000334   0.000284   0.000290  -0.000194  -0.000021   0.000076
     10      -0.000438  -0.000244  -0.000181   0.000091   0.000022  -0.000029
     11      -0.000117  -0.000109  -0.000073   0.000060   0.000025  -0.000022
     12      -0.007717   0.001431   0.000410  -0.044743  -0.000113   0.000433
     13      -0.057814  -0.010841  -0.006832   0.031034  -0.000023  -0.000530
     14      -0.036836  -0.000437  -0.001045  -0.077673  -0.000283   0.000714
     15      -0.005091   0.024136   0.020818   0.001535   0.001202   0.000166
     16       0.001461  -0.000461  -0.001935   0.000177  -0.000178  -0.000487
     17       0.012291  -0.059861  -0.049861  -0.005151  -0.001993  -0.000613
     18      -0.195973  -0.052109  -0.029645   0.394525   0.000361  -0.004352
     19       0.259667   0.072595   0.041304  -0.571696  -0.000951   0.006633
     20      -0.274929  -0.074041  -0.043469   0.561701   0.000468  -0.006461
     21       0.261386   0.030528   0.022144   0.130576   0.001048  -0.000750
     22       0.406978   0.047538   0.034289   0.216403   0.001687  -0.001187
     23       0.720360   0.082550   0.058398   0.352199   0.002960  -0.001988
     24       0.001672  -0.038327   0.047075  -0.001334   0.008964   0.005794
     25      -0.004205   0.030130  -0.032325   0.001540  -0.004899  -0.005703
     26       0.004484   0.030717  -0.042430  -0.000328  -0.010777  -0.002196
     27       0.060269  -0.288377  -0.231413  -0.024223  -0.007837  -0.002222
     28      -0.008371   0.024237   0.021092   0.001996   0.002292   0.000230
     29      -0.145936   0.704674   0.573174   0.059154   0.027084   0.005817
     30       0.023589   0.158925  -0.218385  -0.000921  -0.054431  -0.012667
     31      -0.000310   0.009371  -0.008448   0.001836  -0.003684  -0.000480
     32      -0.051298  -0.357863   0.498344   0.006542   0.118051   0.025059
     33      -0.041589   0.304833  -0.341543   0.018654  -0.051938  -0.052864
     34       0.048551  -0.366219   0.402538  -0.019860   0.064020   0.066811
     35       0.002855  -0.014100   0.012171  -0.000447   0.003517   0.002841
     36       0.004555   0.003706  -0.005588   0.001140   0.011957   0.079212
     37       0.006752  -0.004921   0.008630  -0.000259  -0.030621  -0.040389
     38      -0.003836  -0.004160   0.009026   0.000598  -0.085081   0.027347
     39      -0.056327   0.018891  -0.046547  -0.007616   0.414849  -0.422801
     40      -0.012114   0.001436  -0.007089  -0.001601   0.082921  -0.099147
     41      -0.058652   0.016864  -0.040666  -0.008033   0.404145  -0.439595
     42      -0.053153  -0.017923   0.029441  -0.001149  -0.321622  -0.030692
     43       0.001109  -0.001737  -0.001799  -0.000561  -0.004222  -0.006433
     44       0.105674   0.034719  -0.064962   0.001835   0.619276   0.090260
     45       0.057270  -0.049730   0.083068  -0.004321  -0.240930  -0.492974
     46      -0.065678   0.057030  -0.094308   0.004287   0.282026   0.590399
     47      -0.002786   0.000179  -0.000371   0.000159  -0.007927   0.022601


-----------
IR SPECTRUM
-----------

 Mode   freq       eps      Int      T**2         TX        TY        TZ
       cm**-1   L/(mol*cm) km/mol    a.u.
----------------------------------------------------------------------------
  6:     71.90   0.000329    1.66  0.001428  (-0.030095 -0.015706 -0.016614)
  7:    128.02   0.000054    0.27  0.000131  (-0.003322 -0.009036  0.006226)
  8:    152.57   0.000038    0.19  0.000078  (-0.002442 -0.006677  0.005200)
  9:    225.92   0.000273    1.38  0.000377  (-0.015241 -0.004749 -0.011046)
 10:    239.59   0.000003    0.02  0.000005  (-0.001559  0.000518 -0.001363)
 11:    375.02   0.000018    0.09  0.000015  ( 0.002623 -0.002226  0.001734)
 12:    445.58   0.000293    1.48  0.000206  (-0.010398 -0.003442 -0.009250)
 13:    530.30   0.000034    0.17  0.000020  (-0.002598 -0.001985  0.003018)
 14:    691.13   0.000167    0.85  0.000076  ( 0.005131 -0.006983 -0.000644)
 15:    729.15   0.001456    7.36  0.000623  ( 0.000357  0.011280  0.022269)
 16:    739.64   0.002724   13.76  0.001149  (-0.027657 -0.004971 -0.018960)
 17:    797.53   0.000282    1.43  0.000111  ( 0.009109 -0.000135 -0.005248)
 18:    820.46   0.001108    5.60  0.000422  ( 0.000084 -0.005848 -0.019680)
 19:    881.71   0.000400    2.02  0.000142  (-0.004329  0.009889  0.005014)
 20:    955.95   0.001023    5.17  0.000334  (-0.012881  0.012616  0.002959)
 21:    974.72   0.010177   51.43  0.003258  ( 0.048140 -0.029885  0.006893)
 22:    987.79   0.000328    1.66  0.000104  (-0.007564 -0.005457 -0.004066)
 23:   1056.57   0.011557   58.40  0.003413  ( 0.055410 -0.017050 -0.007238)
 24:   1074.26   0.007158   36.17  0.002079  (-0.038376  0.010047  0.022486)
 25:   1092.08   0.035500  179.40  0.010144  (-0.082597 -0.045893  0.034866)
 26:   1105.80   0.029761  150.40  0.008399  (-0.000263  0.091618 -0.002198)
 27:   1134.28   0.001266    6.40  0.000348  ( 0.004854 -0.017817  0.002686)
 28:   1195.75   0.001598    8.08  0.000417  (-0.015638  0.011653 -0.006061)
 29:   1245.98   0.000391    1.97  0.000098  (-0.005125 -0.005567  0.006372)
 30:   1261.80   0.003951   19.97  0.000977  ( 0.027374  0.010894 -0.010446)
 31:   1303.21   0.001009    5.10  0.000242  (-0.003434  0.013361 -0.007156)
 32:   1340.25   0.005277   26.67  0.001229  ( 0.026546  0.020957 -0.009208)
 33:   1355.47   0.001279    6.47  0.000295  ( 0.009051  0.012398 -0.007677)
 34:   1357.83   0.001829    9.24  0.000420  ( 0.001951 -0.017664  0.010219)
 35:   1402.52   0.000271    1.37  0.000060  ( 0.001246  0.001077 -0.007590)
 36:   1418.79   0.001420    7.18  0.000312  (-0.011546  0.010930  0.007718)
 37:   1431.86   0.001751    8.85  0.000382  (-0.010641  0.000446 -0.016376)
 38:   1446.21   0.001537    7.77  0.000332  (-0.011859 -0.012381  0.006139)
 39:   1902.63   0.113025  571.18  0.018538  (-0.110585  0.074040  0.028758)
 40:   2962.93   0.002535   12.81  0.000267  ( 0.001492 -0.013058  0.009710)
 41:   2977.83   0.004867   24.60  0.000510  (-0.013776 -0.017475  0.003862)
 42:   2978.27   0.005490   27.75  0.000575  ( 0.000811 -0.021656 -0.010278)
 43:   3001.85   0.001045    5.28  0.000109  ( 0.001565  0.000121 -0.010302)
 44:   3018.66   0.006219   31.43  0.000643  ( 0.016076 -0.009076 -0.017382)
 45:   3052.65   0.002792   14.11  0.000285  (-0.009490  0.004787 -0.013133)
 46:   3063.96   0.003850   19.46  0.000392  ( 0.002011 -0.005819 -0.018820)
 47:   3081.73   0.001843    9.31  0.000187  ( 0.012280 -0.004946  0.003373)

* The epsilon (eps) is given for a Dirac delta lineshape.
** The dipole moment derivative (T) already includes vibrational overlap.

The first frequency considered to be a vibration is 6
The total number of vibrations considered is 42


--------------------------
THERMOCHEMISTRY AT 298.15K
--------------------------

Temperature         ... 298.15 K
Pressure            ... 1.00 atm
Total Mass          ... 116.12 AMU

Throughout the following assumptions are being made:
  (1) The electronic state is orbitally nondegenerate
  (2) There are no thermally accessible electronically excited states
  (3) Hindered rotations indicated by low frequency modes are not
      treated as such but are treated as vibrations and this may
      cause some error
  (4) All equations used are the standard statistical mechanics
      equations for an ideal gas
  (5) All vibrations are strictly harmonic

freq.      71.90  E(vib)   ...       0.50 
freq.     128.02  E(vib)   ...       0.43 
freq.     152.57  E(vib)   ...       0.40 
freq.     225.92  E(vib)   ...       0.33 
freq.     239.59  E(vib)   ...       0.31 
freq.     375.02  E(vib)   ...       0.21 
freq.     445.58  E(vib)   ...       0.17 
freq.     530.30  E(vib)   ...       0.13 
freq.     691.13  E(vib)   ...       0.07 
freq.     729.15  E(vib)   ...       0.06 
freq.     739.64  E(vib)   ...       0.06 
freq.     797.53  E(vib)   ...       0.05 
freq.     820.46  E(vib)   ...       0.05 
freq.     881.71  E(vib)   ...       0.04 
freq.     955.95  E(vib)   ...       0.03 
freq.     974.72  E(vib)   ...       0.03 
freq.     987.79  E(vib)   ...       0.02 
freq.    1056.57  E(vib)   ...       0.02 
freq.    1074.26  E(vib)   ...       0.02 
freq.    1092.08  E(vib)   ...       0.02 
freq.    1105.80  E(vib)   ...       0.02 
freq.    1134.28  E(vib)   ...       0.01 
freq.    1195.75  E(vib)   ...       0.01 
freq.    1245.98  E(vib)   ...       0.01 
freq.    1261.80  E(vib)   ...       0.01 
freq.    1303.21  E(vib)   ...       0.01 
freq.    1340.25  E(vib)   ...       0.01 
freq.    1355.47  E(vib)   ...       0.01 
freq.    1357.83  E(vib)   ...       0.01 
freq.    1402.52  E(vib)   ...       0.00 
freq.    1418.79  E(vib)   ...       0.00 
freq.    1431.86  E(vib)   ...       0.00 
freq.    1446.21  E(vib)   ...       0.00 
freq.    1902.63  E(vib)   ...       0.00 
freq.    2962.93  E(vib)   ...       0.00 
freq.    2977.83  E(vib)   ...       0.00 
freq.    2978.27  E(vib)   ...       0.00 
freq.    3001.85  E(vib)   ...       0.00 
freq.    3018.66  E(vib)   ...       0.00 
freq.    3052.65  E(vib)   ...       0.00 
freq.    3063.96  E(vib)   ...       0.00 
freq.    3081.73  E(vib)   ...       0.00 

------------
INNER ENERGY
------------

The inner energy is: U= E(el) + E(ZPE) + E(vib) + E(rot) + E(trans)
    E(el)   - is the total energy from the electronic structure calculation
              = E(kin-el) + E(nuc-el) + E(el-el) + E(nuc-nuc)
    E(ZPE)  - the the zero temperature vibrational energy from the frequency calculation
    E(vib)  - the the finite temperature correction to E(ZPE) due to population
              of excited vibrational states
    E(rot)  - is the rotational thermal energy
    E(trans)- is the translational thermal energy

Summary of contributions to the inner energy U:
Electronic energy                ...   -420.25374371 Eh
Zero point energy                ...      0.12760059 Eh      80.07 kcal/mol
Thermal vibrational correction   ...      0.00482576 Eh       3.03 kcal/mol
Thermal rotational correction    ...      0.00141627 Eh       0.89 kcal/mol
Thermal translational correction ...      0.00141627 Eh       0.89 kcal/mol
-----------------------------------------------------------------------
Total thermal energy                   -420.11848481 Eh


Summary of corrections to the electronic energy:
(perhaps to be used in another calculation)
Total thermal correction                  0.00765830 Eh       4.81 kcal/mol
Non-thermal (ZPE) correction              0.12760059 Eh      80.07 kcal/mol
-----------------------------------------------------------------------
Total correction                          0.13525889 Eh      84.88 kcal/mol


--------
ENTHALPY
--------

The enthalpy is H = U + kB*T
                kB is Boltzmann's constant
Total free energy                 ...   -420.11848481 Eh 
Thermal Enthalpy correction       ...      0.00094421 Eh       0.59 kcal/mol
-----------------------------------------------------------------------
Total Enthalpy                    ...   -420.11754060 Eh


Note: Only C1 symmetry has been detected, increase convergence thresholds 
      if your molecule has a higher symmetry. Symmetry factor of 1.0 is   
      used for the rotational entropy correction. 
 

Note: Rotational entropy computed according to Herzberg 
Infrared and Raman Spectra, Chapter V,1, Van Nostrand Reinhold, 1945 
Point Group:  C1, Symmetry Number:   1  
Rotational constants in cm-1:     0.124730     0.052488     0.041562 

Vibrational entropy computed according to the QRRHO of S. Grimme
Chem.Eur.J. 2012 18 9955


-------
ENTROPY
-------

The entropy contributions are T*S = T*(S(el)+S(vib)+S(rot)+S(trans))
     S(el)   - electronic entropy
     S(vib)  - vibrational entropy
     S(rot)  - rotational entropy
     S(trans)- translational entropy
The entropies will be listed as multiplied by the temperature to get
units of energy

Electronic entropy                ...      0.00000000 Eh      0.00 kcal/mol
Vibrational entropy               ...      0.00824737 Eh      5.18 kcal/mol
Rotational entropy                ...      0.01338636 Eh      8.40 kcal/mol
Translational entropy             ...      0.01908286 Eh     11.97 kcal/mol
-----------------------------------------------------------------------
Final entropy term                ...      0.04071659 Eh     25.55 kcal/mol

In case the symmetry of your molecule has not been determined correctly
or in case you have a reason to use a different symmetry number we print 
out the resulting rotational entropy values for sn=1,12 :
 --------------------------------------------------------
|  sn= 1 | S(rot)=       0.01338636 Eh      8.40 kcal/mol|
|  sn= 2 | S(rot)=       0.01273190 Eh      7.99 kcal/mol|
|  sn= 3 | S(rot)=       0.01234907 Eh      7.75 kcal/mol|
|  sn= 4 | S(rot)=       0.01207744 Eh      7.58 kcal/mol|
|  sn= 5 | S(rot)=       0.01186676 Eh      7.45 kcal/mol|
|  sn= 6 | S(rot)=       0.01169461 Eh      7.34 kcal/mol|
|  sn= 7 | S(rot)=       0.01154906 Eh      7.25 kcal/mol|
|  sn= 8 | S(rot)=       0.01142299 Eh      7.17 kcal/mol|
|  sn= 9 | S(rot)=       0.01131178 Eh      7.10 kcal/mol|
|  sn=10 | S(rot)=       0.01121230 Eh      7.04 kcal/mol|
|  sn=11 | S(rot)=       0.01112231 Eh      6.98 kcal/mol|
|  sn=12 | S(rot)=       0.01104015 Eh      6.93 kcal/mol|
 --------------------------------------------------------


-------------------
GIBBS FREE ENERGY
-------------------

The Gibbs free energy is G = H - T*S

Total enthalpy                    ...   -420.11754060 Eh 
Total entropy correction          ...     -0.04071659 Eh    -25.55 kcal/mol
-----------------------------------------------------------------------
Final Gibbs free energy         ...   -420.15825720 Eh

For completeness - the Gibbs free energy minus the electronic energy
G-E(el)                           ...      0.09548651 Eh     59.92 kcal/mol


Timings for individual modules:

Sum of individual times         ...      105.527 sec (=   1.759 min)
GTO integral calculation        ...        2.400 sec (=   0.040 min)   2.3 %
SCF iterations                  ...       37.102 sec (=   0.618 min)  35.2 %
SCF Gradient evaluation         ...       14.849 sec (=   0.247 min)  14.1 %
Geometry relaxation             ...        0.132 sec (=   0.002 min)   0.1 %
Analytical frequency calculation...       51.043 sec (=   0.851 min)  48.4 %
                             ****ORCA TERMINATED NORMALLY****
TOTAL RUN TIME: 0 days 0 hours 1 minutes 47 seconds 93 msec
