 *******************************************************************************
 **                                                                           **
 **                              MOPAC v22.0.6                                **
 **                                                                           **
 *******************************************************************************
 **          Digital Object Identifier (DOI): 10.5281/zenodo.6511958          **
 **    Visit the DOI location for information on how to cite this program.    **
 *******************************************************************************

                              RM1 CALCULATION RESULTS

 *******************************************************************************
 *  CALCULATION DONE:                                Wed Feb 26 13:45:22 2025  *
 *  RM1        - The RM1 Hamiltonian to be used
 *  SINGLET    - SPIN STATE DEFINED AS A SINGLET
 *
 *
 *
 *                 CHARGE ON SYSTEM = 0
 *
 *
 *
 *  PRECISE    - TIGHTER CRITERIA TO BE USED
 *  NOSYM      - POINT-GROUP SYMMETRY SET TO C1
 *  T=         - A TIME OF 172800.0 SECONDS REQUESTED
 *  DUMP=N     - RESTART FILE WRITTEN EVERY 7200.0 SECONDS REQUESTED
 *  DDMAX=     - MAXIMUM TRUST RADIUS  0.100 ANG/RAD
 *  THERMO     - THERMODYNAMIC QUANTITIES TO BE CALCULATED
 *******************************************************************************
SINGLET CHARGE=0 RM1 THERMO PRECISE DDMAX=0.1 NOSYM


   ATOM   CHEMICAL          X               Y               Z
  NUMBER   SYMBOL      (ANGSTROMS)     (ANGSTROMS)     (ANGSTROMS)
 
     1       H         -2.95792433  *  -0.14569510  *  -0.06457002  *
     2       O         -2.41402633  *   0.65332896  *   0.01678614  *
     3       C         -1.11625386  *   0.30019613  *   0.03168047  *
     4       C         -0.17518603  *   1.32652764  *   0.14420303  *
     5       C         -0.64840666  *  -1.01093034  *  -0.05685263  *
     6      Br         -0.73403123  *   3.16217276  *   0.27132251  *
     7       C          1.18199856  *   1.06360340  *   0.16822420  *
     8      Br         -1.90203578  *  -2.46880269  *  -0.21394559  *
     9       C          0.70111027  *  -1.31316912  *  -0.03620551  *
    10       H          1.91179670  *   1.87580181  *   0.25677852  *
    11       C          1.58831286  *  -0.25808789  *   0.07682364  *
    12       H          1.05049916  *  -2.34861368  *  -0.10678894  *
    13      Br          3.47805337  *  -0.64388087  *   0.10871917  *
 


          CARTESIAN COORDINATES 

    NO.       ATOM           X           Y           Z

     1         H         -2.9579     -0.1457     -0.0646
     2         O         -2.4140      0.6533      0.0168
     3         C         -1.1163      0.3002      0.0317
     4         C         -0.1752      1.3265      0.1442
     5         C         -0.6484     -1.0109     -0.0569
     6        Br         -0.7340      3.1622      0.2713
     7         C          1.1820      1.0636      0.1682
     8        Br         -1.9020     -2.4688     -0.2139
     9         C          0.7011     -1.3132     -0.0362
    10         H          1.9118      1.8758      0.2568
    11         C          1.5883     -0.2581      0.0768
    12         H          1.0505     -2.3486     -0.1068
    13        Br          3.4781     -0.6439      0.1087

  H: (RM1): G.B. ROCHA, R.O. FREIRE, A.M.SIMAS, J.J.P. STEWART, J. COMP. CHEM. 27, 1101 (2006)
  C: (RM1): G.B. ROCHA, R.O. FREIRE, A.M.SIMAS, J.J.P. STEWART, J. COMP. CHEM. 27, 1101 (2006)
  O: (RM1): G.B. ROCHA, R.O. FREIRE, A.M.SIMAS, J.J.P. STEWART, J. COMP. CHEM. 27, 1101 (2006)
 Br: (RM1): G.B. ROCHA, R.O. FREIRE, A.M.SIMAS, J.J.P. STEWART, J. COMP. CHEM. 27, 1101 (2006)

           Empirical Formula: C6 H3 O Br3  =    13 atoms



      MOLECULAR POINT GROUP   :   C1  


 SINGLET STATE CALCULATION


      RHF CALCULATION, NO. OF DOUBLY OCCUPIED LEVELS = 27



          HEAT OF FORMATION =      -5.898433 KCALS/MOLE


          CARTESIAN COORDINATE DERIVATIVES

   NUMBER  ATOM         X            Y            Z

     1       H      0.001126    -0.003422    -0.000054
     2       O     -0.001596     0.005680    -0.000211
     3       C      0.016389    -0.007075     0.000495
     4       C     -0.002695    -0.005684     0.000279
     5       C      0.003095    -0.001278     0.000047
     6      Br     -0.007203     0.005861    -0.000116
     7       C      0.011208     0.002633    -0.000642
     8      Br     -0.013158     0.001250    -0.000111
     9       C      0.012846    -0.008061    -0.000478
    10       H     -0.012900    -0.002491     0.000050
    11       C      0.007702    -0.001753     0.000895
    12       H     -0.008901     0.014062     0.000090
    13      Br     -0.005913     0.000278    -0.000244
 


          GRADIENT NORM =   0.03987

          MOLECULAR WEIGHT =  330.80



          ROTATIONAL CONSTANTS IN CM(-1)

          A =    0.01194883   B =    0.01142290   C =    0.00583997



           PRINCIPAL MOMENTS OF INERTIA IN UNITS OF 10**(-40)*GRAM-CM**2

          A =     2342.7195   B =     2450.5816   C =     4793.3011


          ORIENTATION OF MOLECULE IN FORCE CALCULATION

    NO.       ATOM         X         Y         Z

     1          H      -1.9058   -2.4555    0.0000
     2          O      -0.9358   -2.4555    0.0000
     3          C      -0.4977   -1.1838    0.0000
     4          C       0.8848   -0.9833    0.0000
     5          C      -1.3229   -0.0591    0.0000
     6         Br       2.0942   -2.4785   -0.0000
     7          C       1.4312    0.2867   -0.0000
     8         Br      -3.2399   -0.2751    0.0000
     9          C      -0.8134    1.2268    0.0000
    10          H       2.5169    0.4330   -0.0000
    11          C       0.5627    1.3665    0.0000
    12          H      -1.4763    2.0984    0.0000
    13         Br       1.3072    3.1460   -0.0000


    FIRST DERIVATIVES WILL BE USED IN THE CALCULATION OF SECOND DERIVATIVES

          ESTIMATED TIME TO COMPLETE CALCULATION =        0.61 SECONDS

    FOR POINT-GROUP C1   THERE ARE   1 UNIQUE SYMMETRY FUNCTIONS.

 STEP:   1 TIME =     0.02 SECS, INTEGRAL =      0.02 TIME LEFT: 172799.98
 STEP:   2 TIME =     0.02 SECS, INTEGRAL =      0.04 TIME LEFT: 172799.96
 STEP:   3 TIME =     0.02 SECS, INTEGRAL =      0.06 TIME LEFT: 172799.94
 STEP:   4 TIME =     0.02 SECS, INTEGRAL =      0.08 TIME LEFT: 172799.92
 STEP:   5 TIME =     0.02 SECS, INTEGRAL =      0.09 TIME LEFT: 172799.90
 STEP:   6 TIME =     0.02 SECS, INTEGRAL =      0.12 TIME LEFT: 172799.88
 STEP:   7 TIME =     0.02 SECS, INTEGRAL =      0.14 TIME LEFT: 172799.86
 STEP:   8 TIME =     0.02 SECS, INTEGRAL =      0.15 TIME LEFT: 172799.84
 STEP:   9 TIME =     0.02 SECS, INTEGRAL =      0.18 TIME LEFT: 172799.82
 STEP:  10 TIME =     0.02 SECS, INTEGRAL =      0.19 TIME LEFT: 172799.80
 STEP:  11 TIME =     0.02 SECS, INTEGRAL =      0.21 TIME LEFT: 172799.78
 STEP:  12 TIME =     0.02 SECS, INTEGRAL =      0.23 TIME LEFT: 172799.76
 STEP:  13 TIME =     0.02 SECS, INTEGRAL =      0.25 TIME LEFT: 172799.74
 STEP:  14 TIME =     0.02 SECS, INTEGRAL =      0.27 TIME LEFT: 172799.72
 STEP:  15 TIME =     0.02 SECS, INTEGRAL =      0.29 TIME LEFT: 172799.70
 STEP:  16 TIME =     0.02 SECS, INTEGRAL =      0.31 TIME LEFT: 172799.68
 STEP:  17 TIME =     0.02 SECS, INTEGRAL =      0.33 TIME LEFT: 172799.66
 STEP:  18 TIME =     0.02 SECS, INTEGRAL =      0.35 TIME LEFT: 172799.65
 STEP:  19 TIME =     0.02 SECS, INTEGRAL =      0.37 TIME LEFT: 172799.63
 STEP:  20 TIME =     0.02 SECS, INTEGRAL =      0.39 TIME LEFT: 172799.61
 STEP:  21 TIME =     0.02 SECS, INTEGRAL =      0.41 TIME LEFT: 172799.59
 STEP:  22 TIME =     0.02 SECS, INTEGRAL =      0.43 TIME LEFT: 172799.57
 STEP:  23 TIME =     0.02 SECS, INTEGRAL =      0.45 TIME LEFT: 172799.55
 STEP:  24 TIME =     0.02 SECS, INTEGRAL =      0.46 TIME LEFT: 172799.53
 STEP:  25 TIME =     0.02 SECS, INTEGRAL =      0.48 TIME LEFT: 172799.51
 STEP:  26 TIME =     0.02 SECS, INTEGRAL =      0.50 TIME LEFT: 172799.49
 STEP:  27 TIME =     0.02 SECS, INTEGRAL =      0.52 TIME LEFT: 172799.47
 STEP:  28 TIME =     0.02 SECS, INTEGRAL =      0.54 TIME LEFT: 172799.45
 STEP:  29 TIME =     0.02 SECS, INTEGRAL =      0.56 TIME LEFT: 172799.44
 STEP:  30 TIME =     0.02 SECS, INTEGRAL =      0.58 TIME LEFT: 172799.42
 STEP:  31 TIME =     0.02 SECS, INTEGRAL =      0.60 TIME LEFT: 172799.40
 STEP:  32 TIME =     0.02 SECS, INTEGRAL =      0.62 TIME LEFT: 172799.38
 STEP:  33 TIME =     0.02 SECS, INTEGRAL =      0.64 TIME LEFT: 172799.36
 STEP:  34 TIME =     0.02 SECS, INTEGRAL =      0.66 TIME LEFT: 172799.34
 STEP:  35 TIME =     0.02 SECS, INTEGRAL =      0.67 TIME LEFT: 172799.32
 STEP:  36 TIME =     0.02 SECS, INTEGRAL =      0.69 TIME LEFT: 172799.30
 STEP:  37 TIME =     0.02 SECS, INTEGRAL =      0.71 TIME LEFT: 172799.29
 STEP:  38 TIME =     0.02 SECS, INTEGRAL =      0.73 TIME LEFT: 172799.27
 STEP:  39 TIME =     0.02 SECS, INTEGRAL =      0.75 TIME LEFT: 172799.25

(To convert to Hartree/Bohr^2, multiply by (10^(-21) x N x a0^2)/(4.184 x 627.51) =  0.0642)


           FORCE MATRIX IN MILLIDYNES/ANGSTROM


                  H  1       O  2       C  3       C  4       C  5      Br  6
 ------------------------------------------------------------------------------
     H    1   5.915281
     O    2   5.705434  13.184093
     C    3   0.910846   8.348265  19.056475
     C    4   0.116978   1.412867   5.864891  14.173161
     C    5   0.126937   1.186678   5.862506   2.300726  14.105756
    Br    6   0.009575   0.136342   0.611678   1.829513   0.047234   3.023705
     C    7   0.034190   0.173018   2.349170   6.433106   1.800869   0.704031
    Br    8   0.094813   0.153544   0.641956   0.045999   1.793439   0.026939
     C    9   0.012279   0.108066   2.360679   1.791509   6.424956   0.013428
     H   10   0.004001   0.013235   0.095312   0.525441   0.005509   0.037435
     C   11   0.013729   0.066931   1.853720   2.547750   2.577109   0.061686
     H   12   0.003145   0.011695   0.088764   0.009799   0.531390   0.006488
    Br   13   0.004597   0.013198   0.020760   0.050835   0.054147   0.026654


                  C  7      Br  8       C  9       H 10       C 11       H 12
 ------------------------------------------------------------------------------
     C    7  16.317440
    Br    8   0.015164   3.049978
     C    9   2.402318   0.699618  16.371350
     H   10   4.669027   0.006593   0.080595   5.225540
     C   11   6.283039   0.061973   6.359658   0.525061  13.934971
     H   12   0.082998   0.035155   4.676512   0.008262   0.525373   5.234716
    Br   13   0.673418   0.028057   0.677940   0.033068   1.809223   0.032838


                 Br 13
 ------------------
    Br   13   2.997877


          HEAT OF FORMATION =      -5.898433 KCALS/MOLE

          ZERO POINT ENERGY      46.257 KCAL/MOL


           NORMAL COORDINATE ANALYSIS (Total motion = 1 Angstrom)


   Root No.       1         2         3         4         5         6         7         8

                 1 A       2 A       3 A       4 A       5 A       6 A       7 A       8 A   

                  68.5     105.3     107.9     120.8     164.4     239.0     278.3     291.2
  
           1    0.0000   -0.0000   -0.0437   -0.0378   -0.0000    0.0168    0.1904    0.0000
           2   -0.0000    0.0000   -0.0047   -0.0392    0.0000   -0.0388   -0.1386   -0.0000
           3    0.2635   -0.0887    0.0000    0.0000   -0.0587    0.0001   -0.0002    0.6970
           4    0.0000   -0.0000   -0.0436   -0.0379   -0.0000    0.0159    0.1884    0.0000
           5   -0.0000   -0.0000    0.0111   -0.0618   -0.0000   -0.0275   -0.0514   -0.0000
           6    0.2752   -0.0689   -0.0000    0.0000    0.0031   -0.0000    0.0000   -0.0694
           7    0.0000   -0.0000   -0.0602   -0.0230    0.0000    0.0001    0.0566    0.0000
           8    0.0000   -0.0000    0.0165   -0.0669   -0.0000   -0.0205   -0.0054   -0.0000
           9    0.1323    0.0282    0.0000   -0.0000   -0.0018    0.0000   -0.0000    0.0445
          10   -0.0000    0.0000   -0.0629   -0.0197    0.0000   -0.0338    0.0529    0.0000
          11    0.0000   -0.0000    0.0245   -0.0673   -0.0000    0.0398    0.0481    0.0000
          12    0.0595    0.0681    0.0000   -0.0000    0.0692    0.0000   -0.0000    0.0338
          13    0.0000    0.0000   -0.0668   -0.0201    0.0000    0.0521   -0.0026   -0.0000
          14    0.0000   -0.0000    0.0146   -0.0607    0.0000   -0.0118   -0.0536   -0.0000
          15    0.0595    0.0701   -0.0000   -0.0000   -0.0717   -0.0000   -0.0000    0.0231
          16   -0.0000    0.0000    0.0203    0.1157   -0.0000   -0.1648   -0.0257   -0.0000
          17   -0.0000    0.0000    0.1076    0.0326   -0.0000    0.1919    0.0005   -0.0000
          18   -0.0553   -0.0141   -0.0000    0.0000   -0.0150   -0.0000    0.0000   -0.0017
          19   -0.0000    0.0000   -0.0709   -0.0221    0.0000    0.0010    0.0193   -0.0000
          20    0.0000   -0.0000    0.0223   -0.0659    0.0000    0.0057    0.0530    0.0000
          21    0.0200    0.1146    0.0000   -0.0000    0.1318   -0.0000    0.0000   -0.0041
          22   -0.0000   -0.0000   -0.0719   -0.0420    0.0000    0.2456   -0.0322   -0.0000
          23   -0.0000    0.0000   -0.0676    0.1176    0.0000    0.0244    0.0205    0.0000
          24   -0.0545   -0.0145    0.0000    0.0000    0.0153   -0.0000    0.0000   -0.0023
          25   -0.0000    0.0000   -0.0703   -0.0152   -0.0000   -0.0032   -0.0264   -0.0000
          26    0.0000   -0.0000    0.0215   -0.0640   -0.0000   -0.0075   -0.0365   -0.0000
          27    0.0168    0.1165   -0.0000   -0.0000   -0.1293   -0.0000    0.0000   -0.0222
          28   -0.0000    0.0000   -0.0699   -0.0220    0.0000    0.0006    0.0133   -0.0000
          29   -0.0000   -0.0000    0.0244   -0.0621    0.0000    0.0034    0.0938    0.0000
          30   -0.0157    0.1348    0.0000   -0.0000    0.2535   -0.0000    0.0000   -0.0176
          31    0.0000    0.0000   -0.0690   -0.0191    0.0000   -0.0201   -0.0339   -0.0000
          32   -0.0000   -0.0000    0.0212   -0.0685   -0.0000   -0.0377    0.0136    0.0000
          33    0.0212    0.1081    0.0000   -0.0000    0.0017   -0.0000    0.0000   -0.0212
          34   -0.0000    0.0000   -0.0707   -0.0107   -0.0000   -0.0111   -0.0518   -0.0000
          35    0.0000   -0.0000    0.0198   -0.0597   -0.0000   -0.0143   -0.0555   -0.0000
          36   -0.0214    0.1376   -0.0000   -0.0000   -0.2485   -0.0000    0.0000   -0.0611
          37    0.0000   -0.0000    0.1228   -0.0473   -0.0000   -0.0836    0.0083    0.0000
          38    0.0000   -0.0000   -0.0608   -0.0767    0.0000   -0.2054   -0.0123    0.0000
          39    0.0053   -0.0359   -0.0000    0.0000   -0.0003    0.0000   -0.0000    0.0020


   Root No.       9        10        11        12        13        14        15        16

                 9 A      10 A      11 A      12 A      13 A      14 A      15 A      16 A   

                 308.9     335.4     353.5     487.8     531.1     537.2     671.7     713.7
  
           1    0.0237    0.0000   -0.0001    0.0000   -0.0000    0.0952   -0.0311    0.0000
           2    0.1260    0.0000    0.0163   -0.0000    0.0000   -0.1764   -0.0827    0.0000
           3    0.0001   -0.2955    0.0000   -0.0017   -0.0511   -0.0000   -0.0000   -0.0659
           4    0.0236    0.0000    0.0003    0.0000   -0.0000    0.0903   -0.0291    0.0000
           5    0.1297    0.0000    0.0005    0.0000    0.0000   -0.0237   -0.1078    0.0000
           6   -0.0000   -0.0458   -0.0000    0.0006   -0.0161   -0.0000   -0.0000   -0.0292
           7    0.0359    0.0000    0.0148   -0.0000    0.0000   -0.0863   -0.0302    0.0000
           8    0.1179    0.0000   -0.0042    0.0000   -0.0000    0.0360   -0.0758    0.0000
           9   -0.0000    0.0978    0.0000   -0.0055    0.0580    0.0000    0.0000    0.2052
          10    0.0493    0.0000    0.0168   -0.0000    0.0000   -0.0848   -0.0499   -0.0000
          11    0.0471    0.0000   -0.0222   -0.0000    0.0000   -0.0317    0.0854   -0.0000
          12   -0.0000    0.0888    0.0000   -0.1716   -0.0205    0.0000   -0.0000   -0.1192
          13   -0.0050    0.0000    0.0285    0.0000    0.0000   -0.0454    0.1082   -0.0000
          14    0.0922    0.0000    0.0067    0.0000   -0.0000    0.0734    0.0449   -0.0000
          15   -0.0000    0.0883    0.0000    0.1784   -0.0104   -0.0000   -0.0000   -0.1121
          16    0.0170    0.0000   -0.0217   -0.0000   -0.0000    0.0066    0.0059   -0.0000
          17   -0.0230   -0.0000    0.0368    0.0000    0.0000   -0.0024   -0.0107    0.0000
          18   -0.0000   -0.0038   -0.0000    0.0049    0.0014    0.0000    0.0000    0.0014
          19    0.0460   -0.0000    0.1252    0.0000   -0.0000   -0.0350   -0.0262    0.0000
          20    0.0409    0.0000   -0.0650   -0.0000    0.0000   -0.0639    0.0931   -0.0000
          21    0.0000   -0.0402   -0.0000    0.0581   -0.0562   -0.0000    0.0000    0.0255
          22   -0.0187    0.0000   -0.0423   -0.0000   -0.0000    0.0078   -0.0132    0.0000
          23   -0.0100    0.0000   -0.0108   -0.0000    0.0000   -0.0014   -0.0033    0.0000
          24   -0.0000   -0.0033   -0.0000   -0.0049    0.0011    0.0000    0.0000    0.0012
          25    0.0012   -0.0000    0.1348    0.0000   -0.0000    0.0161    0.0805   -0.0000
          26    0.0800    0.0000   -0.0396    0.0000   -0.0000    0.0593    0.0728    0.0000
          27   -0.0000   -0.0371   -0.0000   -0.0558   -0.0589   -0.0000    0.0000    0.0239
          28    0.0418   -0.0000    0.1328    0.0000   -0.0000   -0.0265   -0.0149    0.0000
          29    0.0677    0.0000   -0.1294   -0.0000    0.0000   -0.1281    0.0205   -0.0000
          30    0.0000   -0.1095   -0.0000    0.2622   -0.2736   -0.0000    0.0000    0.1967
          31    0.0094   -0.0000    0.1476    0.0000    0.0000    0.0254    0.0692   -0.0000
          32    0.0123    0.0000   -0.0610   -0.0000    0.0000   -0.0174    0.1626   -0.0000
          33    0.0000   -0.0867   -0.0000   -0.0077    0.1647    0.0000   -0.0000   -0.0273
          34    0.0337   -0.0000    0.1868    0.0000   -0.0000    0.0688    0.0290   -0.0000
          35    0.1038    0.0000    0.0013    0.0000   -0.0000    0.0995    0.0352    0.0000
          36   -0.0000   -0.0971   -0.0000   -0.2485   -0.2847   -0.0000    0.0000    0.1922
          37   -0.0249   -0.0000   -0.0104   -0.0000    0.0000   -0.0027   -0.0094    0.0000
          38   -0.0554   -0.0000    0.0032    0.0000    0.0000    0.0028   -0.0217    0.0000
          39    0.0000    0.0060    0.0000    0.0003   -0.0032   -0.0000    0.0000   -0.0002


   Root No.      17        18        19        20        21        22        23        24

                17 A      18 A      19 A      20 A      21 A      22 A      23 A      24 A   

                 719.9     873.2     943.4     950.0    1099.2    1168.4    1201.7    1272.7
  
           1    0.0165   -0.0287   -0.0000    0.0000   -0.0111   -0.0008    0.0158    0.0098
           2    0.0594   -0.0567   -0.0000   -0.0000   -0.0350   -0.1288    0.0707    0.2067
           3    0.0000    0.0000   -0.0021   -0.0054   -0.0000   -0.0000    0.0000    0.0000
           4    0.0171   -0.0277   -0.0000    0.0000   -0.0128   -0.0029    0.0198    0.0114
           5   -0.0049   -0.0789   -0.0000    0.0000   -0.0312    0.0073    0.0450   -0.0175
           6    0.0000   -0.0000   -0.0011    0.0002    0.0000    0.0000   -0.0000   -0.0000
           7    0.0862   -0.0140   -0.0000   -0.0000    0.0023   -0.0540   -0.0076    0.0535
           8   -0.0299   -0.0344   -0.0000    0.0000   -0.0001    0.0196   -0.0133   -0.0168
           9   -0.0000   -0.0000   -0.0011    0.0005    0.0000    0.0000   -0.0000   -0.0000
          10    0.0843    0.0045    0.0000    0.0000    0.0535    0.0155   -0.0848   -0.0637
          11   -0.1458    0.0483    0.0000    0.0000   -0.0345   -0.0119    0.0610   -0.0403
          12    0.0000    0.0000    0.0256    0.0255   -0.0000    0.0000    0.0000   -0.0000
          13    0.1509    0.0219   -0.0000    0.0000   -0.0641    0.0192    0.1034   -0.0198
          14    0.0408    0.0432    0.0000   -0.0000    0.0141   -0.0028   -0.0187    0.0764
          15    0.0000    0.0000    0.0293   -0.0212   -0.0000   -0.0000   -0.0000    0.0000
          16   -0.0112    0.0008   -0.0000   -0.0000   -0.0013   -0.0000    0.0018    0.0001
          17    0.0128   -0.0007   -0.0000    0.0000    0.0010    0.0005   -0.0024   -0.0005
          18    0.0000    0.0000   -0.0003   -0.0004   -0.0000   -0.0000    0.0000    0.0000
          19   -0.0953    0.1336    0.0000   -0.0000   -0.0253    0.0217   -0.0434   -0.0092
          20   -0.0741    0.0149    0.0000   -0.0000    0.0184   -0.0317   -0.0054    0.0481
          21    0.0000   -0.0000   -0.0725   -0.0831    0.0000   -0.0000    0.0000   -0.0000
          22   -0.0155   -0.0004   -0.0000   -0.0000    0.0016   -0.0004   -0.0028    0.0005
          23   -0.0007    0.0002    0.0000   -0.0000   -0.0002   -0.0002   -0.0004    0.0002
          24   -0.0000    0.0000   -0.0004    0.0003   -0.0000    0.0000    0.0000   -0.0000
          25   -0.0284   -0.0867   -0.0000    0.0000    0.0289    0.0370    0.0270   -0.0372
          26    0.1154    0.1025    0.0000    0.0000   -0.0048    0.0115   -0.0347   -0.0343
          27   -0.0000    0.0000   -0.0852    0.0700    0.0000   -0.0000    0.0000    0.0000
          28   -0.0999    0.1214    0.0000    0.0000   -0.0694   -0.0290   -0.0791   -0.0278
          29   -0.0196    0.0966    0.0000    0.0000    0.3509    0.3487    0.2239    0.1839
          30   -0.0000   -0.0000    0.3316    0.4241   -0.0000   -0.0000   -0.0000    0.0000
          31   -0.0209   -0.0464    0.0000   -0.0000    0.0017   -0.0083   -0.0328    0.0695
          32   -0.0064   -0.1168   -0.0000    0.0000    0.0023    0.0037   -0.0782   -0.0302
          33    0.0000    0.0000    0.0537    0.0044   -0.0000    0.0000    0.0000   -0.0000
          34   -0.0595   -0.0068    0.0000   -0.0000    0.3087   -0.2537    0.2129   -0.1558
          35    0.0880    0.1620    0.0000   -0.0000    0.2092   -0.2107    0.1006   -0.1240
          36    0.0000   -0.0000    0.3965   -0.3649   -0.0000    0.0000   -0.0000   -0.0000
          37   -0.0015    0.0022   -0.0000    0.0000   -0.0002   -0.0000    0.0009    0.0003
          38    0.0023    0.0051    0.0000   -0.0000   -0.0005   -0.0001    0.0022   -0.0000
          39    0.0000   -0.0000   -0.0007   -0.0001    0.0000    0.0000    0.0000   -0.0000


   Root No.      25        26        27        28        29        30        31        32

                25 A      26 A      27 A      28 A      29 A      30 A      31 A      32 A   

                1382.3    1428.3    1523.7    1656.7    1732.1    1756.4    3053.6    3057.5
  
           1    0.0046    0.0165   -0.0111   -0.0260   -0.0010   -0.0104    0.0003    0.0029
           2    0.5385    0.0776   -0.2972   -0.0886   -0.1900    0.0262   -0.0001   -0.0001
           3   -0.0000    0.0000    0.0000    0.0000    0.0000   -0.0000    0.0000   -0.0000
           4    0.0185    0.0190   -0.0185   -0.0350   -0.0118   -0.0265   -0.0000   -0.0002
           5   -0.0379    0.0413    0.0243   -0.0869    0.0095   -0.0818   -0.0000   -0.0001
           6    0.0000    0.0000   -0.0000   -0.0000   -0.0000   -0.0000   -0.0000    0.0000
           7    0.0037   -0.0129    0.0814    0.0716    0.1561    0.0378    0.0007    0.0001
           8   -0.0039   -0.0308   -0.0281    0.1514   -0.0338    0.2337    0.0002    0.0010
           9   -0.0000    0.0000    0.0000   -0.0000   -0.0000   -0.0000   -0.0000    0.0000
          10    0.0059   -0.0650   -0.0101   -0.0049   -0.1150   -0.0924   -0.0006   -0.0003
          11    0.0564   -0.0523    0.0748    0.0758   -0.0369   -0.0978    0.0010    0.0005
          12    0.0000    0.0000   -0.0000   -0.0000    0.0000    0.0000    0.0000   -0.0000
          13   -0.0477    0.0105   -0.0499    0.0494   -0.0538    0.0319   -0.0003    0.0013
          14   -0.0369   -0.0756   -0.0558    0.0625    0.0356   -0.1790   -0.0001    0.0003
          15   -0.0000    0.0000    0.0000   -0.0000    0.0000    0.0000    0.0000    0.0000
          16    0.0003   -0.0000    0.0002    0.0005   -0.0001    0.0007   -0.0000   -0.0000
          17   -0.0003    0.0005   -0.0006   -0.0002    0.0002   -0.0005   -0.0000   -0.0000
          18   -0.0000   -0.0000    0.0000    0.0000   -0.0000    0.0000   -0.0000   -0.0000
          19   -0.0132    0.0783   -0.0551    0.0016    0.0644   -0.0044   -0.0552   -0.0219
          20   -0.0729   -0.0451   -0.0391   -0.1404   -0.0301    0.1235   -0.0076   -0.0026
          21    0.0000   -0.0000    0.0000    0.0000   -0.0000   -0.0000    0.0000    0.0000
          22    0.0009    0.0004    0.0003   -0.0006   -0.0006   -0.0006    0.0000   -0.0000
          23   -0.0005    0.0003    0.0005    0.0002    0.0000   -0.0001    0.0000   -0.0000
          24    0.0000   -0.0000   -0.0000    0.0000   -0.0000    0.0000   -0.0000   -0.0000
          25    0.0444   -0.0880   -0.0193   -0.0770    0.1098    0.0417   -0.0125    0.0340
          26    0.0584    0.0178    0.0678   -0.0984    0.0250    0.0829    0.0170   -0.0443
          27   -0.0000    0.0000    0.0000    0.0000   -0.0000   -0.0000   -0.0000   -0.0000
          28   -0.0308    0.0513   -0.0725   -0.0294    0.0552    0.0118    0.6566    0.2526
          29    0.0497    0.1891    0.0741    0.0730    0.0203   -0.0191    0.0886    0.0343
          30   -0.0000   -0.0000    0.0000   -0.0000   -0.0000   -0.0000   -0.0000   -0.0000
          31   -0.0149    0.0393    0.0920    0.0030   -0.1458    0.0230    0.0000   -0.0008
          32    0.0058    0.0992   -0.0344    0.0620    0.0457   -0.0504   -0.0008   -0.0015
          33    0.0000   -0.0000   -0.0000    0.0000    0.0000    0.0000    0.0000    0.0000
          34   -0.0686    0.1018   -0.0929    0.0809    0.0050   -0.0250    0.1559   -0.3992
          35   -0.0258    0.1682    0.0147    0.0197   -0.0533    0.0267   -0.2045    0.5246
          36    0.0000   -0.0000   -0.0000   -0.0000    0.0000   -0.0000   -0.0000    0.0000
          37   -0.0004   -0.0006   -0.0004    0.0002   -0.0000   -0.0002   -0.0000    0.0000
          38    0.0002   -0.0016    0.0001    0.0004   -0.0001   -0.0004    0.0000    0.0000
          39    0.0000    0.0000   -0.0000    0.0000   -0.0000    0.0000    0.0000   -0.0000


   Root No.      33

                33 A   

                3223.5
  
           1    0.9287
           2    0.0223
           3   -0.0000
           4   -0.0580
           5    0.0006
           6   -0.0000
           7   -0.0023
           8   -0.0034
           9   -0.0000
          10    0.0014
          11    0.0016
          12    0.0000
          13    0.0007
          14    0.0000
          15    0.0000
          16    0.0000
          17   -0.0000
          18    0.0000
          19    0.0002
          20   -0.0004
          21   -0.0000
          22   -0.0000
          23   -0.0001
          24    0.0000
          25   -0.0003
          26    0.0002
          27   -0.0000
          28   -0.0017
          29   -0.0001
          30   -0.0000
          31   -0.0001
          32    0.0000
          33    0.0000
          34    0.0023
          35   -0.0023
          36   -0.0000
          37    0.0000
          38    0.0000
          39   -0.0000


           MASS-WEIGHTED COORDINATE ANALYSIS (NORMAL COORDINATES)


   Root No.       1         2         3         4         5         6         7         8

                 1 A       2 A       3 A       4 A       5 A       6 A       7 A       8 A   

                  68.5     105.3     107.9     120.8     164.4     239.0     278.3     291.2
  
           1    0.0000   -0.0000   -0.0230   -0.0203   -0.0000    0.0045    0.1839    0.0000
           2   -0.0000    0.0000   -0.0025   -0.0211    0.0000   -0.0104   -0.1339   -0.0000
           3    0.1836   -0.0971    0.0000    0.0000   -0.0707    0.0000   -0.0002    0.8837
           4    0.0000   -0.0000   -0.0916   -0.0811   -0.0000    0.0170    0.7248    0.0001
           5   -0.0000   -0.0000    0.0234   -0.1324   -0.0000   -0.0294   -0.1978   -0.0001
           6    0.7643   -0.3005   -0.0000    0.0000    0.0148   -0.0000    0.0001   -0.3503
           7    0.0000   -0.0000   -0.1095   -0.0427    0.0000    0.0001    0.1886    0.0000
           8    0.0000   -0.0000    0.0299   -0.1241   -0.0000   -0.0190   -0.0180   -0.0000
           9    0.3183    0.1064    0.0000   -0.0000   -0.0074    0.0000   -0.0000    0.1949
          10   -0.0000    0.0000   -0.1144   -0.0366    0.0000   -0.0313    0.1765    0.0000
          11    0.0000   -0.0000    0.0445   -0.1250   -0.0000    0.0368    0.1603    0.0000
          12    0.1431    0.2571    0.0000   -0.0000    0.2873    0.0000   -0.0000    0.1477
          13    0.0000    0.0000   -0.1215   -0.0373    0.0000    0.0482   -0.0086   -0.0000
          14    0.0000   -0.0000    0.0266   -0.1127    0.0000   -0.0109   -0.1786   -0.0000
          15    0.1431    0.2646   -0.0000   -0.0000   -0.2976   -0.0000   -0.0000    0.1010
          16   -0.0000    0.0000    0.0954    0.5542   -0.0000   -0.3933   -0.2209   -0.0000
          17   -0.0000    0.0000    0.5046    0.1563   -0.0000    0.4582    0.0040   -0.0000
          18   -0.3429   -0.1373   -0.0000    0.0000   -0.1604   -0.0000    0.0000   -0.0188
          19   -0.0000    0.0000   -0.1289   -0.0410    0.0000    0.0009    0.0645   -0.0000
          20    0.0000   -0.0000    0.0406   -0.1223    0.0000    0.0053    0.1766    0.0000
          21    0.0481    0.4327    0.0000   -0.0000    0.5476   -0.0000    0.0000   -0.0181
          22   -0.0000   -0.0000   -0.3371   -0.2013    0.0000    0.5863   -0.2766   -0.0000
          23   -0.0000    0.0000   -0.3172    0.5631    0.0000    0.0582    0.1761    0.0000
          24   -0.3382   -0.1415    0.0000    0.0000    0.1643   -0.0000    0.0000   -0.0261
          25   -0.0000    0.0000   -0.1278   -0.0282   -0.0000   -0.0030   -0.0880   -0.0000
          26    0.0000   -0.0000    0.0390   -0.1189   -0.0000   -0.0070   -0.1217   -0.0000
          27    0.0404    0.4399   -0.0000   -0.0000   -0.5372   -0.0000    0.0000   -0.0973
          28   -0.0000    0.0000   -0.0368   -0.0118    0.0000    0.0002    0.0129   -0.0000
          29   -0.0000   -0.0000    0.0128   -0.0334    0.0000    0.0009    0.0906    0.0000
          30   -0.0109    0.1475    0.0000   -0.0000    0.3050   -0.0000    0.0000   -0.0224
          31    0.0000    0.0000   -0.1255   -0.0354    0.0000   -0.0186   -0.1130   -0.0000
          32   -0.0000   -0.0000    0.0385   -0.1272   -0.0000   -0.0349    0.0455    0.0000
          33    0.0510    0.4082    0.0000   -0.0000    0.0069   -0.0000    0.0000   -0.0927
          34   -0.0000    0.0000   -0.0372   -0.0058   -0.0000   -0.0030   -0.0500   -0.0000
          35    0.0000   -0.0000    0.0104   -0.0321   -0.0000   -0.0038   -0.0536   -0.0000
          36   -0.0149    0.1505   -0.0000   -0.0000   -0.2990   -0.0000    0.0000   -0.0775
          37    0.0000   -0.0000    0.5757   -0.2265   -0.0000   -0.1995    0.0714    0.0000
          38    0.0000   -0.0000   -0.2852   -0.3673    0.0000   -0.4902   -0.1056    0.0000
          39    0.0330   -0.3495   -0.0000    0.0000   -0.0031    0.0000   -0.0000    0.0222


   Root No.       9        10        11        12        13        14        15        16

                 9 A      10 A      11 A      12 A      13 A      14 A      15 A      16 A   

                 308.9     335.4     353.5     487.8     531.1     537.2     671.7     713.7
  
           1    0.0220    0.0000   -0.0001    0.0000   -0.0000    0.1199   -0.0276    0.0000
           2    0.1167    0.0000    0.0150   -0.0000    0.0000   -0.2221   -0.0736    0.0000
           3    0.0001   -0.3904    0.0000   -0.0017   -0.0652   -0.0000   -0.0000   -0.0680
           4    0.0872    0.0000    0.0010    0.0000   -0.0000    0.4530   -0.1031    0.0000
           5    0.4786    0.0000    0.0018    0.0000    0.0000   -0.1190   -0.3823    0.0000
           6   -0.0000   -0.2413   -0.0000    0.0025   -0.0820   -0.0000   -0.0000   -0.1201
           7    0.1147    0.0000    0.0473   -0.0000    0.0000   -0.3752   -0.0926    0.0000
           8    0.3770    0.0000   -0.0132    0.0000   -0.0000    0.1563   -0.2328    0.0000
           9   -0.0000    0.4459    0.0000   -0.0195    0.2559    0.0000    0.0000    0.7313
          10    0.1576    0.0000    0.0536   -0.0000    0.0000   -0.3686   -0.1533   -0.0000
          11    0.1507    0.0000   -0.0708   -0.0000    0.0000   -0.1379    0.2623   -0.0000
          12   -0.0000    0.4050    0.0000   -0.6099   -0.0903    0.0000   -0.0000   -0.4250
          13   -0.0161    0.0000    0.0908    0.0000    0.0000   -0.1974    0.3325   -0.0000
          14    0.2950    0.0000    0.0214    0.0000   -0.0000    0.3191    0.1379   -0.0000
          15   -0.0000    0.4028    0.0000    0.6344   -0.0461   -0.0000   -0.0000   -0.3995
          16    0.1403    0.0000   -0.1780   -0.0000   -0.0000    0.0745    0.0467   -0.0000
          17   -0.1900   -0.0000    0.3023    0.0000    0.0000   -0.0272   -0.0848    0.0000
          18   -0.0000   -0.0451   -0.0000    0.0450    0.0161    0.0000    0.0000    0.0132
          19    0.1471   -0.0000    0.3990    0.0000   -0.0000   -0.1522   -0.0805    0.0000
          20    0.1308    0.0000   -0.2073   -0.0000    0.0000   -0.2776    0.2861   -0.0000
          21    0.0000   -0.1831   -0.0000    0.2065   -0.2480   -0.0000    0.0000    0.0910
          22   -0.1538    0.0000   -0.3477   -0.0000   -0.0000    0.0879   -0.1048    0.0000
          23   -0.0826    0.0000   -0.0887   -0.0000    0.0000   -0.0162   -0.0259    0.0000
          24   -0.0000   -0.0388   -0.0000   -0.0445    0.0131    0.0000    0.0000    0.0107
          25    0.0037   -0.0000    0.4296    0.0000   -0.0000    0.0701    0.2472   -0.0000
          26    0.2557    0.0000   -0.1262    0.0000   -0.0000    0.2579    0.2237    0.0000
          27   -0.0000   -0.1693   -0.0000   -0.1982   -0.2600   -0.0000    0.0000    0.0853
          28    0.0387   -0.0000    0.1226    0.0000   -0.0000   -0.0334   -0.0133    0.0000
          29    0.0627    0.0000   -0.1195   -0.0000    0.0000   -0.1612    0.0182   -0.0000
          30    0.0000   -0.1447   -0.0000    0.2701   -0.3495   -0.0000    0.0000    0.2032
          31    0.0300   -0.0000    0.4705    0.0000    0.0000    0.1102    0.2125   -0.0000
          32    0.0394    0.0000   -0.1944   -0.0000    0.0000   -0.0755    0.4995   -0.0000
          33    0.0000   -0.3953   -0.0000   -0.0273    0.7266    0.0000   -0.0000   -0.0973
          34    0.0312   -0.0000    0.1725    0.0000   -0.0000    0.0866    0.0258   -0.0000
          35    0.0961    0.0000    0.0012    0.0000   -0.0000    0.1252    0.0313    0.0000
          36   -0.0000   -0.1283   -0.0000   -0.2559   -0.3638   -0.0000    0.0000    0.1985
          37   -0.2053   -0.0000   -0.0858   -0.0000    0.0000   -0.0305   -0.0747    0.0000
          38   -0.4565   -0.0000    0.0262    0.0000    0.0000    0.0317   -0.1717    0.0000
          39    0.0000    0.0702    0.0000    0.0024   -0.0361   -0.0000    0.0000   -0.0021


   Root No.      17        18        19        20        21        22        23        24

                17 A      18 A      19 A      20 A      21 A      22 A      23 A      24 A   

                 719.9     873.2     943.4     950.0    1099.2    1168.4    1201.7    1272.7
  
           1    0.0154   -0.0310   -0.0000    0.0000   -0.0174   -0.0014    0.0213    0.0150
           2    0.0554   -0.0612   -0.0000   -0.0000   -0.0547   -0.2229    0.0951    0.3148
           3    0.0000    0.0000   -0.0030   -0.0079   -0.0000   -0.0000    0.0000    0.0000
           4    0.0637   -0.1190   -0.0000    0.0000   -0.0795   -0.0200    0.1060    0.0692
           5   -0.0183   -0.3393   -0.0000    0.0000   -0.1944    0.0502    0.2409   -0.1062
           6    0.0000   -0.0000   -0.0063    0.0010    0.0000    0.0000   -0.0000   -0.0000
           7    0.2776   -0.0522   -0.0000   -0.0000    0.0127   -0.3227   -0.0351    0.2811
           8   -0.0963   -0.1282   -0.0000    0.0000   -0.0005    0.1171   -0.0619   -0.0885
           9   -0.0000   -0.0000   -0.0057    0.0024    0.0000    0.0000   -0.0000   -0.0000
          10    0.2714    0.0169    0.0000    0.0000    0.2888    0.0925   -0.3935   -0.3351
          11   -0.4695    0.1798    0.0000    0.0000   -0.1862   -0.0711    0.2829   -0.2118
          12    0.0000    0.0000    0.1289    0.1288   -0.0000    0.0000    0.0000   -0.0000
          13    0.4859    0.0816   -0.0000    0.0000   -0.3464    0.1150    0.4802   -0.1042
          14    0.1315    0.1609    0.0000   -0.0000    0.0762   -0.0170   -0.0867    0.4018
          15    0.0000    0.0000    0.1477   -0.1069   -0.0000   -0.0000   -0.0000    0.0000
          16   -0.0930    0.0072   -0.0000   -0.0000   -0.0179   -0.0007    0.0212    0.0010
          17    0.1067   -0.0066   -0.0000    0.0000    0.0143    0.0070   -0.0283   -0.0061
          18    0.0000    0.0000   -0.0042   -0.0049   -0.0000   -0.0000    0.0000    0.0000
          19   -0.3068    0.4978    0.0000   -0.0000   -0.1369    0.1298   -0.2013   -0.0483
          20   -0.2387    0.0553    0.0000   -0.0000    0.0995   -0.1895   -0.0249    0.2532
          21    0.0000   -0.0000   -0.3658   -0.4199    0.0000   -0.0000    0.0000   -0.0000
          22   -0.1288   -0.0039   -0.0000   -0.0000    0.0229   -0.0065   -0.0339    0.0073
          23   -0.0057    0.0020    0.0000   -0.0000   -0.0024   -0.0031   -0.0049    0.0022
          24   -0.0000    0.0000   -0.0047    0.0040   -0.0000    0.0000    0.0000   -0.0000
          25   -0.0915   -0.3230   -0.0000    0.0000    0.1563    0.2211    0.1256   -0.1957
          26    0.3715    0.3819    0.0000    0.0000   -0.0259    0.0686   -0.1610   -0.1802
          27   -0.0000    0.0000   -0.4295    0.3536    0.0000   -0.0000    0.0000    0.0000
          28   -0.0932    0.1310    0.0000    0.0000   -0.1086   -0.0503   -0.1064   -0.0424
          29   -0.0183    0.1043    0.0000    0.0000    0.5489    0.6037    0.3011    0.2801
          30   -0.0000   -0.0000    0.4843    0.6205   -0.0000   -0.0000   -0.0000    0.0000
          31   -0.0674   -0.1727    0.0000   -0.0000    0.0094   -0.0497   -0.1521    0.3654
          32   -0.0205   -0.4351   -0.0000    0.0000    0.0124    0.0219   -0.3630   -0.1589
          33    0.0000    0.0000    0.2706    0.0222   -0.0000    0.0000    0.0000   -0.0000
          34   -0.0555   -0.0073    0.0000   -0.0000    0.4829   -0.4393    0.2862   -0.2373
          35    0.0821    0.1748    0.0000   -0.0000    0.3273   -0.3647    0.1353   -0.1889
          36    0.0000   -0.0000    0.5791   -0.5338   -0.0000    0.0000   -0.0000   -0.0000
          37   -0.0125    0.0207   -0.0000    0.0000   -0.0032   -0.0008    0.0111    0.0047
          38    0.0187    0.0488    0.0000   -0.0000   -0.0077   -0.0010    0.0264   -0.0002
          39    0.0000   -0.0000   -0.0089   -0.0007    0.0000    0.0000    0.0000   -0.0000


   Root No.      25        26        27        28        29        30        31        32

                25 A      26 A      27 A      28 A      29 A      30 A      31 A      32 A   

                1382.3    1428.3    1523.7    1656.7    1732.1    1756.4    3053.6    3057.5
  
           1    0.0062    0.0212   -0.0147   -0.0247   -0.0010   -0.0079    0.0005    0.0039
           2    0.7317    0.0993   -0.3920   -0.0843   -0.1842    0.0200   -0.0001   -0.0002
           3   -0.0000    0.0000    0.0000    0.0000    0.0000   -0.0000    0.0000   -0.0000
           4    0.0999    0.0968   -0.0972   -0.1328   -0.0455   -0.0804   -0.0001   -0.0012
           5   -0.2051    0.2105    0.1279   -0.3293    0.0367   -0.2485   -0.0003   -0.0003
           6    0.0000    0.0000   -0.0000   -0.0000   -0.0000   -0.0000   -0.0000    0.0000
           7    0.0176   -0.0571    0.3707    0.2350    0.5227    0.0996    0.0031    0.0004
           8   -0.0184   -0.1361   -0.1282    0.4967   -0.1133    0.6153    0.0009    0.0046
           9   -0.0000    0.0000    0.0000   -0.0000   -0.0000   -0.0000   -0.0000    0.0000
          10    0.0277   -0.2870   -0.0462   -0.0160   -0.3850   -0.2434   -0.0028   -0.0013
          11    0.2644   -0.2311    0.3406    0.2488   -0.1236   -0.2576    0.0047    0.0024
          12    0.0000    0.0000   -0.0000   -0.0000    0.0000    0.0000    0.0000   -0.0000
          13   -0.2235    0.0465   -0.2272    0.1621   -0.1802    0.0840   -0.0015    0.0060
          14   -0.1731   -0.3338   -0.2539    0.2052    0.1191   -0.4714   -0.0005    0.0014
          15   -0.0000    0.0000    0.0000   -0.0000    0.0000    0.0000    0.0000    0.0000
          16    0.0032   -0.0004    0.0021    0.0044   -0.0009    0.0051   -0.0001   -0.0001
          17   -0.0030    0.0061   -0.0075   -0.0014    0.0014   -0.0037   -0.0005   -0.0002
          18   -0.0000   -0.0000    0.0000    0.0000   -0.0000    0.0000   -0.0000   -0.0000
          19   -0.0619    0.3457   -0.2511    0.0051    0.2157   -0.0117   -0.2574   -0.1028
          20   -0.3419   -0.1992   -0.1781   -0.4608   -0.1007    0.3251   -0.0353   -0.0120
          21    0.0000   -0.0000    0.0000    0.0000   -0.0000   -0.0000    0.0000    0.0000
          22    0.0105    0.0047    0.0031   -0.0048   -0.0053   -0.0043    0.0001   -0.0003
          23   -0.0055    0.0038    0.0061    0.0013    0.0003   -0.0004    0.0002   -0.0004
          24    0.0000   -0.0000   -0.0000    0.0000   -0.0000    0.0000   -0.0000   -0.0000
          25    0.2085   -0.3886   -0.0877   -0.2526    0.3675    0.1098   -0.0585    0.1595
          26    0.2739    0.0787    0.3089   -0.3228    0.0835    0.2182    0.0794   -0.2078
          27   -0.0000    0.0000    0.0000    0.0000   -0.0000   -0.0000   -0.0000   -0.0000
          28   -0.0419    0.0657   -0.0957   -0.0280    0.0536    0.0090    0.8875    0.3429
          29    0.0675    0.2419    0.0977    0.0694    0.0197   -0.0145    0.1197    0.0465
          30   -0.0000   -0.0000    0.0000   -0.0000   -0.0000   -0.0000   -0.0000   -0.0000
          31   -0.0701    0.1735    0.4189    0.0098   -0.4883    0.0606    0.0000   -0.0039
          32    0.0271    0.4380   -0.1568    0.2033    0.1529   -0.1327   -0.0037   -0.0072
          33    0.0000   -0.0000   -0.0000    0.0000    0.0000    0.0000    0.0000    0.0000
          34   -0.0932    0.1302   -0.1226    0.0769    0.0049   -0.0191    0.2107   -0.5419
          35   -0.0351    0.2153    0.0194    0.0187   -0.0517    0.0204   -0.2764    0.7121
          36    0.0000   -0.0000   -0.0000   -0.0000    0.0000   -0.0000   -0.0000    0.0000
          37   -0.0045   -0.0072   -0.0043    0.0015   -0.0002   -0.0011   -0.0004    0.0004
          38    0.0021   -0.0180    0.0012    0.0034   -0.0008   -0.0027    0.0004    0.0003
          39    0.0000    0.0000   -0.0000    0.0000   -0.0000    0.0000    0.0000   -0.0000


   Root No.      33

                33 A   

                3223.5
  
           1    0.9700
           2    0.0233
           3   -0.0000
           4   -0.2414
           5    0.0024
           6   -0.0000
           7   -0.0084
           8   -0.0124
           9   -0.0000
          10    0.0050
          11    0.0057
          12    0.0000
          13    0.0025
          14    0.0002
          15    0.0000
          16    0.0001
          17   -0.0001
          18    0.0000
          19    0.0006
          20   -0.0015
          21   -0.0000
          22   -0.0004
          23   -0.0005
          24    0.0000
          25   -0.0012
          26    0.0006
          27   -0.0000
          28   -0.0018
          29   -0.0001
          30   -0.0000
          31   -0.0005
          32    0.0000
          33    0.0000
          34    0.0024
          35   -0.0024
          36   -0.0000
          37    0.0000
          38    0.0001
          39   -0.0000


          DESCRIPTION OF VIBRATIONS


 VIBRATION          1    1A           ATOM PAIR      ENERGY CONTRIBUTION    RADIAL
 FREQUENCY            68.48         C  3 -- C  5         +22.3% (229.3%)      0.0%
 TRANSITION DIPOLE   0.0727         C  3 -- C  4         +21.9% (227.6%)      0.0%
 TRAVEL (Ang.)       0.3566         H  1 -- O  2         +16.2% (195.4%)      0.0%
 REDUCED MASS        7.7437         O  2 -- C  3         +15.0% (188.5%)      0.0%
 EFFECTIVE MASS     31.5378
 FORCE CONSTANT      0.0214

 VIBRATION          2    2A           ATOM PAIR      ENERGY CONTRIBUTION    RADIAL
 FREQUENCY           105.31         Br 8 -- C  9         +10.1% (237.0%)      0.0%
 TRANSITION DIPOLE   0.0407         C  9 -- Br13         +10.0% (236.5%)      0.0%
 TRAVEL (Ang.)       0.4869         Br 6 -- C  7          +9.8% (233.3%)      0.0%
 REDUCED MASS        2.7011         C  7 -- Br13          +9.7% (232.9%)      0.0%
 EFFECTIVE MASS     33.2308
 FORCE CONSTANT      0.0176

 VIBRATION          3    3A           ATOM PAIR      ENERGY CONTRIBUTION    RADIAL
 FREQUENCY           107.95         C  4 -- C  7          +9.0% (189.7%)     38.4%
 TRANSITION DIPOLE   0.0413         C  5 -- C  9          +8.7% (186.9%)     43.9%
 TRAVEL (Ang.)       0.1653         Br 6 -- C  7          +7.4% (172.4%)     59.9%
 REDUCED MASS       22.8593         Br 8 -- C  9          +7.4% (172.2%)     78.2%
 EFFECTIVE MASS    113.2292
 FORCE CONSTANT      0.1569

 VIBRATION          4    4A           ATOM PAIR      ENERGY CONTRIBUTION    RADIAL
 FREQUENCY           120.81         C  3 -- C  4         +10.2% (190.0%)     91.8%
 TRANSITION DIPOLE   0.1660         C  3 -- C  5          +9.2% (179.7%)     22.7%
 TRAVEL (Ang.)       0.1600         C  9 -- C 11          +6.9% (156.0%)     53.4%
 REDUCED MASS       21.8025         C  7 -- Br13          +6.8% (154.8%)     59.3%
 EFFECTIVE MASS     97.9852
 FORCE CONSTANT      0.1875

 VIBRATION          5    5A           ATOM PAIR      ENERGY CONTRIBUTION    RADIAL
 FREQUENCY           164.41         C  7 -- Br13         +11.0% (189.6%)      0.0%
 TRANSITION DIPOLE   0.1128         Br 6 -- C  7         +11.0% (189.1%)      0.0%
 TRAVEL (Ang.)       0.4148         C  7 -- C 11         +10.9% (188.5%)      0.0%
 REDUCED MASS        2.3839         C  9 -- C 11         +10.7% (186.8%)      0.0%
 EFFECTIVE MASS     37.2031         C  9 -- Br13         +10.6% (185.7%)      0.0%
 FORCE CONSTANT      0.0380         Br 8 -- C  9         +10.5% (185.3%)      0.0%

 VIBRATION          6    6A           ATOM PAIR      ENERGY CONTRIBUTION    RADIAL
 FREQUENCY           239.04         Br 6 -- C  7         +15.1% ( 63.5%)     78.6%
 TRANSITION DIPOLE   0.0469         Br 8 -- C  9         +14.7% ( 62.7%)     81.5%
 TRAVEL (Ang.)       0.1031         C  4 -- Br 6         +13.1% ( 59.2%)     99.9%
 REDUCED MASS       26.5236         C  5 -- Br 8         +12.8% ( 58.6%)    100.0%
 EFFECTIVE MASS     83.3558         C  7 -- Br13         +11.7% ( 56.0%)     82.8%
 FORCE CONSTANT      0.8929         C  9 -- Br13         +11.5% ( 55.4%)     81.2%
                            C 11 -- Br13         +10.1% ( 51.9%)    100.0%

 VIBRATION          7    7A           ATOM PAIR      ENERGY CONTRIBUTION    RADIAL
 FREQUENCY           278.32         O  2 -- C  3         +31.0% (243.1%)      0.0%
 TRANSITION DIPOLE   0.3085         C  3 -- C  4          +7.3% (117.9%)      0.6%
 TRAVEL (Ang.)       0.1957         C  3 -- C  5          +6.7% (113.3%)      0.3%
 REDUCED MASS        6.3270         C  4 -- Br 6          +6.5% (111.1%)      9.0%
 EFFECTIVE MASS     64.8659
 FORCE CONSTANT      0.2888

 VIBRATION          8    8A           ATOM PAIR      ENERGY CONTRIBUTION    RADIAL
 FREQUENCY           291.15         H  1 -- O  2         +49.3% ( 95.6%)      0.0%
 TRANSITION DIPOLE   0.8797         O  2 -- C  3         +15.9% ( 54.3%)      0.0%
 TRAVEL (Ang.)       0.5125         C  3 -- C  4          +5.8% ( 32.9%)      0.0%
 REDUCED MASS        0.8819         C  3 -- C  5          +5.8% ( 32.8%)      0.0%
 EFFECTIVE MASS      4.1631
 FORCE CONSTANT      0.0440

 VIBRATION          9    9A           ATOM PAIR      ENERGY CONTRIBUTION    RADIAL
 FREQUENCY           308.89         C  3 -- C  5         +15.4% (193.1%)      0.5%
 TRANSITION DIPOLE   0.5817         C  3 -- C  4         +14.6% (188.2%)      0.2%
 TRAVEL (Ang.)       0.1803         H  1 -- O  2         +11.1% (164.0%)      3.1%
 REDUCED MASS        6.7144         O  2 -- C  3          +9.0% (147.5%)     68.5%
 EFFECTIVE MASS     38.7104
 FORCE CONSTANT      0.3775

 VIBRATION         10   10A           ATOM PAIR      ENERGY CONTRIBUTION    RADIAL
 FREQUENCY           335.40         O  2 -- C  3         +14.3% ( 84.0%)      0.0%
 TRANSITION DIPOLE   0.6874         C  4 -- C  7         +12.6% ( 78.8%)      0.0%
 TRAVEL (Ang.)       0.3647         C  5 -- C  9         +11.8% ( 76.2%)      0.0%
 REDUCED MASS        1.5116         C  3 -- C  5          +9.5% ( 68.2%)      0.0%
 EFFECTIVE MASS     11.3158
 FORCE CONSTANT      0.1002

 VIBRATION         11   11A           ATOM PAIR      ENERGY CONTRIBUTION    RADIAL
 FREQUENCY           353.51         C  7 -- C 11         +10.9% (183.0%)     22.8%
 TRANSITION DIPOLE   0.6164         C 11 -- Br13         +10.9% (182.6%)      0.0%
 TRAVEL (Ang.)       0.2100         C  9 -- C 11         +10.8% (181.7%)     18.1%
 REDUCED MASS        4.3242         Br 6 -- C  7          +9.0% (165.9%)     67.0%
 EFFECTIVE MASS     36.0860
 FORCE CONSTANT      0.3184

 VIBRATION         12   12A           ATOM PAIR      ENERGY CONTRIBUTION    RADIAL
 FREQUENCY           487.76         C  5 -- C  9         +18.4% ( 76.6%)      0.0%
 TRANSITION DIPOLE   0.0587         C  4 -- C  7         +17.9% ( 75.6%)      0.0%
 TRAVEL (Ang.)       0.1944         C  3 -- C  5         +12.6% ( 63.5%)      0.0%
 REDUCED MASS        3.6588         C  5 -- Br 8         +12.3% ( 62.6%)      0.0%
 EFFECTIVE MASS     12.0767         C  4 -- Br 6         +11.6% ( 61.0%)      0.0%
 FORCE CONSTANT      0.5129         C  3 -- C  4         +11.1% ( 59.6%)      0.0%

 VIBRATION         13   13A           ATOM PAIR      ENERGY CONTRIBUTION    RADIAL
 FREQUENCY           531.13         C  9 -- C 11         +25.0% ( 84.6%)      0.0%
 TRANSITION DIPOLE   0.5553         C  7 -- C 11         +24.5% ( 83.8%)      0.0%
 TRAVEL (Ang.)       0.1896         C 11 -- Br13         +15.8% ( 67.2%)      0.0%
 REDUCED MASS        3.5335         C  9 -- H 12          +5.2% ( 38.6%)      0.0%
 EFFECTIVE MASS     11.1143
 FORCE CONSTANT      0.5873

 VIBRATION         14   14A           ATOM PAIR      ENERGY CONTRIBUTION    RADIAL
 FREQUENCY           537.18         O  2 -- C  3         +15.1% (132.5%)      0.0%
 TRANSITION DIPOLE   0.5990         C  3 -- C  4         +10.0% (108.1%)      1.5%
 TRAVEL (Ang.)       0.2624         C  3 -- C  5          +9.2% (103.3%)      1.2%
 REDUCED MASS        1.8235         C  4 -- C  7          +8.1% ( 97.2%)      2.8%
 EFFECTIVE MASS     19.9818
 FORCE CONSTANT      0.3100

 VIBRATION         15   15A           ATOM PAIR      ENERGY CONTRIBUTION    RADIAL
 FREQUENCY           671.74         C 11 -- Br13         +10.5% ( 88.2%)    100.0%
 TRANSITION DIPOLE   2.9057         C  9 -- C 11         +10.1% ( 86.5%)      0.1%
 TRAVEL (Ang.)       0.2163         C  7 -- C 11          +9.3% ( 83.0%)      0.2%
 REDUCED MASS        2.1459         C  3 -- C  5          +8.2% ( 78.1%)      0.7%
 EFFECTIVE MASS     15.2927
 FORCE CONSTANT      0.5705

 VIBRATION         16   16A           ATOM PAIR      ENERGY CONTRIBUTION    RADIAL
 FREQUENCY           713.74         C  3 -- C  4         +29.6% ( 76.6%)      0.0%
 TRANSITION DIPOLE   1.2687         C  3 -- C  5         +28.2% ( 74.7%)      0.0%
 TRAVEL (Ang.)       0.1510         O  2 -- C  3         +18.0% ( 59.8%)      0.0%
 REDUCED MASS        4.1421         C  4 -- C  7          +5.5% ( 33.1%)      0.0%
 EFFECTIVE MASS     11.2252
 FORCE CONSTANT      1.2432

 VIBRATION         17   17A           ATOM PAIR      ENERGY CONTRIBUTION    RADIAL
 FREQUENCY           719.93         C  4 -- C  7          +9.4% ( 84.9%)      0.1%
 TRANSITION DIPOLE   2.5517         C  4 -- Br 6          +8.9% ( 82.5%)     98.7%
 TRAVEL (Ang.)       0.1941         C  5 -- C  9          +8.9% ( 82.4%)      0.0%
 REDUCED MASS        2.4861         C  3 -- C  4          +8.5% ( 80.7%)      2.6%
 EFFECTIVE MASS     15.2072
 FORCE CONSTANT      0.7592

 VIBRATION         18   18A           ATOM PAIR      ENERGY CONTRIBUTION    RADIAL
 FREQUENCY           873.21         C  9 -- C 11         +11.7% ( 86.0%)      0.7%
 TRANSITION DIPOLE   0.7443         C  7 -- C 11         +11.6% ( 85.8%)      0.2%
 TRAVEL (Ang.)       0.1800         Br 8 -- C  9          +8.5% ( 73.4%)      2.1%
 REDUCED MASS        2.3838         C  9 -- Br13          +8.5% ( 73.4%)      0.4%
 EFFECTIVE MASS     14.7975
 FORCE CONSTANT      1.0709

 VIBRATION         19   19A           ATOM PAIR      ENERGY CONTRIBUTION    RADIAL
 FREQUENCY           943.36         C  9 -- H 12         +32.9% ( 70.3%)      0.0%
 TRANSITION DIPOLE   0.3323         C  7 -- H 10         +23.4% ( 59.2%)      0.0%
 TRAVEL (Ang.)       0.2873         C  9 -- C 11          +8.3% ( 35.2%)      0.0%
 REDUCED MASS        0.8658         C  7 -- C 11          +6.7% ( 31.7%)      0.0%
 EFFECTIVE MASS      4.7140
 FORCE CONSTANT      0.4540

 VIBRATION         20   20A           ATOM PAIR      ENERGY CONTRIBUTION    RADIAL
 FREQUENCY           950.03         C  7 -- H 10         +37.9% ( 72.7%)      0.0%
 TRANSITION DIPOLE   0.0327         C  9 -- H 12         +27.6% ( 62.1%)      0.0%
 TRAVEL (Ang.)       0.2983         C  4 -- C  7          +6.0% ( 29.0%)      0.0%
 REDUCED MASS        0.7974         C  7 -- C 11          +4.8% ( 25.8%)      0.0%
 EFFECTIVE MASS      3.4730
 FORCE CONSTANT      0.4240

 VIBRATION         21   21A           ATOM PAIR      ENERGY CONTRIBUTION    RADIAL
 FREQUENCY          1099.25         C  9 -- H 12         +20.3% ( 60.9%)      3.0%
 TRANSITION DIPOLE   0.1368         C  7 -- H 10         +18.9% ( 58.8%)      3.8%
 TRAVEL (Ang.)       0.3141         C  5 -- C  9          +9.5% ( 41.7%)      3.1%
 REDUCED MASS        0.6218         C  4 -- C  7          +9.5% ( 41.6%)      3.4%
 EFFECTIVE MASS      5.5343
 FORCE CONSTANT      0.4427

 VIBRATION         22   22A           ATOM PAIR      ENERGY CONTRIBUTION    RADIAL
 FREQUENCY          1168.43         C  7 -- H 10         +22.7% ( 67.9%)      0.8%
 TRANSITION DIPOLE   0.4326         C  9 -- H 12         +20.8% ( 65.0%)      0.5%
 TRAVEL (Ang.)       0.3450         C  3 -- C  4          +9.3% ( 43.5%)     70.9%
 REDUCED MASS        0.4848         C  3 -- C  5          +9.2% ( 43.2%)     64.3%
 EFFECTIVE MASS      3.8452
 FORCE CONSTANT      0.3899

 VIBRATION         23   23A           ATOM PAIR      ENERGY CONTRIBUTION    RADIAL
 FREQUENCY          1201.71         C  5 -- C  9         +10.3% ( 48.6%)     30.4%
 TRANSITION DIPOLE   0.0682         C  4 -- C  7         +10.3% ( 48.5%)     32.5%
 TRAVEL (Ang.)       0.1780         C  5 -- Br 8          +8.4% ( 43.7%)     92.9%
 REDUCED MASS        1.7711         C  4 -- Br 6          +8.3% ( 43.5%)     94.0%
 EFFECTIVE MASS     10.3020
 FORCE CONSTANT      1.5069

 VIBRATION         24   24A           ATOM PAIR      ENERGY CONTRIBUTION    RADIAL
 FREQUENCY          1272.71         C  3 -- C  5         +10.9% ( 57.1%)     99.9%
 TRANSITION DIPOLE   1.1018         C  3 -- C  4         +10.7% ( 56.6%)     99.7%
 TRAVEL (Ang.)       0.2111         C  5 -- C  9         +10.2% ( 55.2%)     95.2%
 REDUCED MASS        1.1888         C  7 -- C 11          +9.5% ( 53.4%)     98.8%
 EFFECTIVE MASS      8.9515
 FORCE CONSTANT      1.1345

 VIBRATION         25   25A           ATOM PAIR      ENERGY CONTRIBUTION    RADIAL
 FREQUENCY          1382.28         H  1 -- O  2         +27.8% ( 77.1%)      1.0%
 TRANSITION DIPOLE   0.7544         C  4 -- C  7         +10.8% ( 48.1%)     93.4%
 TRAVEL (Ang.)       0.2449         C  5 -- C  9         +10.7% ( 47.9%)     85.5%
 REDUCED MASS        0.8132         C  7 -- C 11          +5.3% ( 33.6%)     62.9%
 EFFECTIVE MASS      5.8847
 FORCE CONSTANT      0.9154

 VIBRATION         26   26A           ATOM PAIR      ENERGY CONTRIBUTION    RADIAL
 FREQUENCY          1428.25         C  7 -- C 11         +12.7% ( 57.4%)     83.9%
 TRANSITION DIPOLE   1.3296         C  9 -- C 11         +12.7% ( 57.2%)     79.7%
 TRAVEL (Ang.)       0.1702         C  4 -- C  7          +9.9% ( 50.5%)     19.4%
 REDUCED MASS        1.6289         C  5 -- C  9          +8.9% ( 48.0%)     13.9%
 EFFECTIVE MASS     10.8799
 FORCE CONSTANT      1.9578

 VIBRATION         27   27A           ATOM PAIR      ENERGY CONTRIBUTION    RADIAL
 FREQUENCY          1523.75         C  9 -- C 11         +11.4% ( 50.4%)     44.1%
 TRANSITION DIPOLE   1.5030         C  7 -- C 11         +10.7% ( 48.7%)     36.2%
 TRAVEL (Ang.)       0.1800         C  5 -- C  9          +9.4% ( 45.7%)     98.2%
 REDUCED MASS        1.3652         C  3 -- C  4          +8.9% ( 44.6%)     30.3%
 EFFECTIVE MASS     10.0161
 FORCE CONSTANT      1.8676

 VIBRATION         28   28A           ATOM PAIR      ENERGY CONTRIBUTION    RADIAL
 FREQUENCY          1656.65         O  2 -- C  3         +17.3% ( 65.2%)     99.2%
 TRANSITION DIPOLE   3.3916         C  3 -- C  4         +10.2% ( 50.0%)     64.8%
 TRAVEL (Ang.)       0.1315         C  3 -- C  5          +9.9% ( 49.4%)     40.8%
 REDUCED MASS        2.3535         C  4 -- C  7          +8.7% ( 46.3%)     82.2%
 EFFECTIVE MASS     12.2740
 FORCE CONSTANT      3.8056

 VIBRATION         29   29A           ATOM PAIR      ENERGY CONTRIBUTION    RADIAL
 FREQUENCY          1732.08         C  3 -- C  4         +16.3% ( 58.0%)     98.3%
 TRANSITION DIPOLE   0.2653         C  9 -- C 11         +14.8% ( 55.2%)     96.7%
 TRAVEL (Ang.)       0.1264         C  7 -- C 11         +10.9% ( 47.4%)     72.9%
 REDUCED MASS        2.4352         C  3 -- C  5         +10.7% ( 47.0%)     66.4%
 EFFECTIVE MASS     11.5551
 FORCE CONSTANT      4.3044

 VIBRATION         30   30A           ATOM PAIR      ENERGY CONTRIBUTION    RADIAL
 FREQUENCY          1756.39         C  3 -- C  5         +22.1% ( 70.3%)     63.6%
 TRANSITION DIPOLE   3.4201         O  2 -- C  3         +17.6% ( 62.8%)     98.4%
 TRAVEL (Ang.)       0.1152         C  3 -- C  4         +16.8% ( 61.4%)     24.6%
 REDUCED MASS        2.8911         C  5 -- C  9          +9.0% ( 44.9%)     88.9%
 EFFECTIVE MASS     12.2646
 FORCE CONSTANT      5.2547

 VIBRATION         31   31A           ATOM PAIR      ENERGY CONTRIBUTION    RADIAL
 FREQUENCY          3053.57         C  7 -- H 10         +82.4% ( 93.3%)    100.0%
 TRANSITION DIPOLE   0.7659         C  9 -- H 12         +12.4% ( 36.2%)    100.0%
 TRAVEL (Ang.)       0.1753         C  4 -- C  7          +1.1% ( 10.9%)     28.4%
 REDUCED MASS        0.7187         C  7 -- C 11          +1.1% ( 10.9%)     27.8%
 EFFECTIVE MASS      1.4698
 FORCE CONSTANT      3.9486

 VIBRATION         32   32A           ATOM PAIR      ENERGY CONTRIBUTION    RADIAL
 FREQUENCY          3057.55         C  9 -- H 12         +82.4% ( 93.2%)    100.0%
 TRANSITION DIPOLE   0.5470         C  7 -- H 10         +12.3% ( 36.1%)    100.0%
 TRAVEL (Ang.)       0.1752         C  9 -- C 11          +1.2% ( 11.0%)     30.3%
 REDUCED MASS        0.7187         C  5 -- C  9          +1.2% ( 11.0%)     28.3%
 EFFECTIVE MASS      1.4909
 FORCE CONSTANT      3.9585

 VIBRATION         33   33A           ATOM PAIR      ENERGY CONTRIBUTION    RADIAL
 FREQUENCY          3223.52         H  1 -- O  2         +99.5% (100.0%)    100.0%
 TRANSITION DIPOLE   0.9102         O  2 -- C  3          +0.5% (  6.9%)      7.0%
 TRAVEL (Ang.)       0.1486
 REDUCED MASS        0.9476
 EFFECTIVE MASS      1.4034
 FORCE CONSTANT      5.8015

      SYMMETRY NUMBER FOR POINT-GROUP C1  =  1


          SYSTEM IS A GROUND STATE






          MOLECULE IS NOT LINEAR

          THERE ARE 33 GENUINE VIBRATIONS IN THIS SYSTEM
          THIS THERMODYNAMICS CALCULATION IS LIMITED TO
          MOLECULES WHICH HAVE NO INTERNAL ROTATIONS




                    CALCULATED THERMODYNAMIC PROPERTIES
                                          *
   TEMP. (K)   PARTITION FUNCTION   H.O.F.    ENTHALPY  HEAT CAPACITY ENTROPY
                                   KCAL/MOL   CAL/MOLE    CAL/K/MOL  CAL/K/MOL


 298.00  VIB.     0.7056D+03                  4576.0678    28.4563    28.3902
         ROT.     0.5918D+07                   888.2803     2.9808    33.9682
         INT.     0.4176D+10                  5464.3481    31.4371    62.3584
         TRA.     0.5817D+28                  1480.4672     4.9680    43.2819
         TOT.                       -5.898    6944.8152    36.4051   105.6403

 200.00  VIB.     0.5273D+02                  2134.6432    21.1246    18.5527
         ROT.     0.3254D+07                   596.1613     2.9808    32.7795
         INT.     0.1716D+09                  2730.8045    24.1054    51.3322
         TRA.     0.3198D+28                   993.6021     4.9680    41.3007
         TOT.                       -9.119    3724.4066    29.0734    92.6329

 210.00  VIB.     0.6896D+02                  2350.0104    21.9454    19.6033
         ROT.     0.3501D+07                   625.9693     2.9808    32.9250
         INT.     0.2414D+09                  2975.9798    24.9262    52.5282
         TRA.     0.3441D+28                  1043.2822     4.9680    41.5431
         TOT.                       -8.824    4019.2620    29.8942    94.0714

 220.00  VIB.     0.9014D+02                  2573.4865    22.7467    20.6428
         ROT.     0.3754D+07                   655.7774     2.9808    33.0636
         INT.     0.3384D+09                  3229.2639    25.7275    53.7064
         TRA.     0.3690D+28                  1092.9623     4.9680    41.7742
         TOT.                       -8.521    4322.2262    30.6955    95.4806

 230.00  VIB.     0.1177D+03                  2804.8833    23.5298    21.6712
         ROT.     0.4013D+07                   685.5855     2.9808    33.1961
         INT.     0.4725D+09                  3490.4688    26.5106    54.8673
         TRA.     0.3944D+28                  1142.6424     4.9680    41.9951
         TOT.                       -8.210    4633.1112    31.4786    96.8624

 240.00  VIB.     0.1537D+03                  3044.0273    24.2963    22.6889
         ROT.     0.4277D+07                   715.3935     2.9808    33.3230
         INT.     0.6573D+09                  3759.4208    27.2771    56.0119
         TRA.     0.4204D+28                  1192.3226     4.9680    42.2065
         TOT.                       -7.892    4951.7434    32.2451    98.2184

 250.00  VIB.     0.2004D+03                  3290.7566    25.0471    23.6960
         ROT.     0.4547D+07                   745.2016     2.9808    33.4447
         INT.     0.9113D+09                  4035.9582    28.0279    57.1407
         TRA.     0.4470D+28                  1242.0027     4.9680    42.4093
         TOT.                       -7.565    5277.9609    32.9959    99.5500

 260.00  VIB.     0.2611D+03                  3544.9195    25.7831    24.6927
         ROT.     0.4823D+07                   775.0097     2.9808    33.5616
         INT.     0.1259D+10                  4319.9291    28.7639    58.2543
         TRA.     0.4740D+28                  1291.6828     4.9680    42.6042
         TOT.                       -7.232    5611.6119    33.7319   100.8585

 270.00  VIB.     0.3397D+03                  3806.3720    26.5051    25.6794
         ROT.     0.5104D+07                   804.8177     2.9808    33.6741
         INT.     0.1734D+10                  4611.1897    29.4859    59.3535
         TRA.     0.5016D+28                  1341.3629     4.9680    42.7917
         TOT.                       -6.891    5952.5526    34.4539   102.1451

 280.00  VIB.     0.4416D+03                  4074.9766    27.2136    26.6562
         ROT.     0.5390D+07                   834.6258     2.9808    33.7825
         INT.     0.2380D+10                  4909.6024    30.1944    60.4386
         TRA.     0.5298D+28                  1391.0430     4.9680    42.9723
         TOT.                       -6.543    6300.6453    35.1624   103.4110

 290.00  VIB.     0.5732D+03                  4350.6008    27.9091    27.6233
         ROT.     0.5681D+07                   864.4339     2.9808    33.8871
         INT.     0.3256D+10                  5215.0346    30.8899    61.5104
         TRA.     0.5584D+28                  1440.7231     4.9680    43.1467
         TOT.                       -6.187    6655.7577    35.8579   104.6570

 300.00  VIB.     0.7432D+03                  4633.1160    28.5919    28.5810
         ROT.     0.5977D+07                   894.2419     2.9808    33.9881
         INT.     0.4442D+10                  5527.3579    31.5727    62.5691
         TRA.     0.5875D+28                  1490.4032     4.9680    43.3151
         TOT.                       -5.825    7017.7611    36.5407   105.8842

 310.00  VIB.     0.9623D+03                  4922.3966    29.2622    29.5295
         ROT.     0.6279D+07                   924.0500     2.9808    34.0859
         INT.     0.6042D+10                  5846.4466    32.2430    63.6154
         TRA.     0.6172D+28                  1540.0833     4.9680    43.4780
         TOT.                       -5.457    7386.5299    37.2110   107.0934

 320.00  VIB.     0.1244D+04                  5218.3192    29.9203    30.4689
         ROT.     0.6585D+07                   953.8580     2.9808    34.1805
         INT.     0.8195D+10                  6172.1773    32.9011    64.6494
         TRA.     0.6473D+28                  1589.7634     4.9680    43.6357
         TOT.                       -5.081    7761.9407    37.8691   108.2852

 330.00  VIB.     0.1607D+04                  5520.7621    30.5663    31.3996
         ROT.     0.6896D+07                   983.6661     2.9808    34.2722
         INT.     0.1108D+11                  6504.4282    33.5471    65.6718
         TRA.     0.6778D+28                  1639.4435     4.9680    43.7886
         TOT.                       -4.699    8143.8717    38.5151   109.4604

 340.00  VIB.     0.2073D+04                  5829.6048    31.2003    32.3215
         ROT.     0.7212D+07                  1013.4742     2.9808    34.3612
         INT.     0.1495D+11                  6843.0790    34.1811    66.6827
         TRA.     0.7089D+28                  1689.1236     4.9680    43.9369
         TOT.                       -4.311    8532.2026    39.1491   110.6196

 350.00  VIB.     0.2670D+04                  6144.7278    31.8224    33.2349
         ROT.     0.7532D+07                  1043.2822     2.9808    34.4476
         INT.     0.2011D+11                  7188.0101    34.8032    67.6825
         TRA.     0.7404D+28                  1738.8037     4.9680    44.0809
         TOT.                       -3.916    8926.8138    39.7712   111.7635

 360.00  VIB.     0.3434D+04                  6466.0125    32.4326    34.1400
         ROT.     0.7857D+07                  1073.0903     2.9808    34.5316
         INT.     0.2698D+11                  7539.1028    35.4134    68.6716
         TRA.     0.7723D+28                  1788.4838     4.9680    44.2209
         TOT.                       -3.516    9327.5867    40.3814   112.8924

 370.00  VIB.     0.4411D+04                  6793.3408    33.0311    35.0368
         ROT.     0.8187D+07                  1102.8984     2.9808    34.6133
         INT.     0.3611D+11                  7896.2392    36.0119    69.6500
         TRA.     0.8047D+28                  1838.1639     4.9680    44.3570
         TOT.                       -3.109    9734.4031    40.9799   114.0070

 380.00  VIB.     0.5659D+04                  7126.5952    33.6179    35.9255
         ROT.     0.8521D+07                  1132.7064     2.9808    34.6928
         INT.     0.4822D+11                  8259.3017    36.5987    70.6182
         TRA.     0.8376D+28                  1887.8440     4.9680    44.4895
         TOT.                       -2.696   10147.1457    41.5667   115.1077

 390.00  VIB.     0.7249D+04                  7465.6590    34.1930    36.8062
         ROT.     0.8860D+07                  1162.5145     2.9808    34.7702
         INT.     0.6422D+11                  8628.1735    37.1738    71.5764
         TRA.     0.8709D+28                  1937.5242     4.9680    44.6185
         TOT.                       -2.278   10565.6976    42.1418   116.1949

 400.00  VIB.     0.9274D+04                  7810.4160    34.7565    37.6790
         ROT.     0.9203D+07                  1192.3226     2.9808    34.8457
         INT.     0.8534D+11                  9002.7385    37.7373    72.5246
         TRA.     0.9046D+28                  1987.2043     4.9680    44.7443
         TOT.                       -1.853   10989.9428    42.7053   117.2690

   *: NOTE: HEATS OF FORMATION ARE RELATIVE TO THE
            ELEMENTS IN THEIR STANDARD STATE AT 298K
              (=  Standard Enthalpy of Formation).

            Hvib:  Zero-point energy is not included.
                   frequencies of less than zero cm-1 are not included.
            Hrot = (3/2)RT
            Htra = (3/2)RT + pV = (5/2)RT

            Heat capacity is Cp, not Cv

          For more information, see: HTTP://OpenMOPAC.net/Manual/thermochemistry.html


           FORCE CONSTANT IN CARTESIAN COORDINATES (Millidynes/A)

    ATOM   CHEMICAL       X               Y               Z
   NUMBER   SYMBOL  FORCE CONSTANT  FORCE CONSTANT  FORCE CONSTANT

      1       H        5.813496        1.067144        0.051875
      2       O        8.396783        9.759761        0.282321
      3       C       11.973078       14.590344        2.245202
      4       C       10.009806        9.558495        1.669211
      5       C        7.891836       11.572392        1.625409
      6      Br        1.476433        1.947782        0.112220
      7       C       11.551715       11.293968        2.293007
      8      Br        2.992955        0.504012        0.109199
      9       C       11.421278       11.501805        2.286943
     10       H        5.073884        0.865778        0.376667
     11       C       10.871741        8.383381        1.695571
     12       H        2.390707        3.556358        0.376301
     13      Br        0.746444        2.583500        0.112080

 **********************
 *                    *
 * JOB ENDED NORMALLY *
 *                    *
 **********************



 TOTAL JOB TIME:             0.76 SECONDS

 == MOPAC DONE ==
